Process 1 of 2 is on gollum418.lsa.umich.edu - thread support 0
Process 0 of 2 is on gollum418.lsa.umich.edu - thread support 0
initial socket setup ...start
initial socket setup ...done 
now start server 0 ... 
                  Welcome to Q-Chem
     A Quantum Leap Into The Future Of Chemistry

 Q-Chem begins on Wed Nov  8 15:38:19 2017  

Host: gollum418.lsa.umich.edu
0

     Scratch files written to /tmp/77729141.athena/qchem14988.0//
 Parallel job on  2  processors

Checking the input file for inconsistencies...	...done.

--------------------------------------------------------------
User input:
--------------------------------------------------------------
 $rem
 JOBTYPE OPT
 EXCHANGE B3LYP
! CORRELATION PBE
! UNRESTRICTED TRUE
 SCF_ALGORITHM diis
 SCF_MAX_CYCLES 150
 BASIS LANL2DZ
 ECP LANL2DZ
 WAVEFUNCTION_ANALYSIS FALSE
 GEOM_OPT_MAX_CYCLES 300

scf_convergence 6

 SYM_IGNORE TRUE
 SYMMETRY   FALSE

molden_format true
 $end


$molecule
1 1
  C  -0.387300   1.188400  -2.481800 
  C   0.713100   0.873900  -1.686200 
  C  -1.636700   0.714100  -2.086800 
  H  -0.283900   1.778400  -3.391400 
  C  -1.765700  -0.071300  -0.927600 
  H  -2.519200   0.949500  -2.680900 
  C  -0.657200  -0.400900  -0.159200 
  H  -2.756300  -0.427400  -0.627900 
  C   0.634000   0.059600  -0.520000 
  H  -0.766700  -1.026000   0.730100 
  O   2.039100   1.320500  -2.026100 
  C   2.103900   2.645600  -2.651400 
  H   1.858600   2.507100  -3.713000 
  H   3.139400   2.999600  -2.515600 
  H   1.396500   3.316700  -2.146500 
  N   1.820600  -0.232100   0.154600 
  C   1.820800  -0.981900   1.383600 
  C   2.230700  -0.316700   2.565000 
  C   1.504000  -2.362300   1.403800 
  C   2.244900  -1.034100   3.770500 
  C   1.492100  -3.032400   2.634600 
  C   1.854400  -2.372900   3.810500 
  H   1.198800  -4.084800   2.673100 
  H   1.837400  -2.907400   4.760700 
  H   2.553800  -0.542400   4.695300 
  C   2.641200   1.144500   2.625000 
  C   3.799400   1.511500   1.662000 
  H   4.447200   0.603100   1.411000 
  H   4.495600   2.200900   2.184800 
  H   3.431300   2.134300   0.777300 
  C   1.434100   2.063600   2.423500 
  H   1.707300   3.121400   2.503300 
  H   0.672300   1.876900   3.195200 
  H   0.935200   1.913300   1.459700 
  H   3.035800   1.340100   3.662900 
  C  -0.081100  -3.914700   0.196500 
  C   1.249700  -3.158300   0.134700 
  H  -0.923200  -3.233000   0.360900 
  H  -0.105400  -4.663800   0.995800 
  H  -0.270100  -4.448500  -0.743500 
  C   2.434500  -4.106700  -0.100000 
  H   1.191900  -2.474700  -0.749700 
  H   2.553400  -4.834200   0.711500 
  H   3.382400  -3.547800  -0.176300 
  H   2.308400  -4.677500  -1.027000 
 Zr   3.687500   0.444000  -0.759600 
  C   4.979600  -1.401000  -0.546200 
  H   5.806100  -1.485000  -1.256500 
  H   4.381200  -2.326200  -0.614100 
  H   5.411100  -1.374200   0.465800 
  C   5.175700   2.037300  -1.349100 
  H   5.122100   3.119200  -1.382000 
  H   5.344400   1.656400  -2.380300 
  H   6.070000   1.768100  -0.756600 
$end
--------------------------------------------------------------
 ----------------------------------------------------------------
             Standard Nuclear Orientation (Angstroms)
    I     Atom           X                Y                Z
 ----------------------------------------------------------------
    1      C      -0.3873000000     1.1884000000    -2.4818000000
    2      C       0.7131000000     0.8739000000    -1.6862000000
    3      C      -1.6367000000     0.7141000000    -2.0868000000
    4      H      -0.2839000000     1.7784000000    -3.3914000000
    5      C      -1.7657000000    -0.0713000000    -0.9276000000
    6      H      -2.5192000000     0.9495000000    -2.6809000000
    7      C      -0.6572000000    -0.4009000000    -0.1592000000
    8      H      -2.7563000000    -0.4274000000    -0.6279000000
    9      C       0.6340000000     0.0596000000    -0.5200000000
   10      H      -0.7667000000    -1.0260000000     0.7301000000
   11      O       2.0391000000     1.3205000000    -2.0261000000
   12      C       2.1039000000     2.6456000000    -2.6514000000
   13      H       1.8586000000     2.5071000000    -3.7130000000
   14      H       3.1394000000     2.9996000000    -2.5156000000
   15      H       1.3965000000     3.3167000000    -2.1465000000
   16      N       1.8206000000    -0.2321000000     0.1546000000
   17      C       1.8208000000    -0.9819000000     1.3836000000
   18      C       2.2307000000    -0.3167000000     2.5650000000
   19      C       1.5040000000    -2.3623000000     1.4038000000
   20      C       2.2449000000    -1.0341000000     3.7705000000
   21      C       1.4921000000    -3.0324000000     2.6346000000
   22      C       1.8544000000    -2.3729000000     3.8105000000
   23      H       1.1988000000    -4.0848000000     2.6731000000
   24      H       1.8374000000    -2.9074000000     4.7607000000
   25      H       2.5538000000    -0.5424000000     4.6953000000
   26      C       2.6412000000     1.1445000000     2.6250000000
   27      C       3.7994000000     1.5115000000     1.6620000000
   28      H       4.4472000000     0.6031000000     1.4110000000
   29      H       4.4956000000     2.2009000000     2.1848000000
   30      H       3.4313000000     2.1343000000     0.7773000000
   31      C       1.4341000000     2.0636000000     2.4235000000
   32      H       1.7073000000     3.1214000000     2.5033000000
   33      H       0.6723000000     1.8769000000     3.1952000000
   34      H       0.9352000000     1.9133000000     1.4597000000
   35      H       3.0358000000     1.3401000000     3.6629000000
   36      C      -0.0811000000    -3.9147000000     0.1965000000
   37      C       1.2497000000    -3.1583000000     0.1347000000
   38      H      -0.9232000000    -3.2330000000     0.3609000000
   39      H      -0.1054000000    -4.6638000000     0.9958000000
   40      H      -0.2701000000    -4.4485000000    -0.7435000000
   41      C       2.4345000000    -4.1067000000    -0.1000000000
   42      H       1.1919000000    -2.4747000000    -0.7497000000
   43      H       2.5534000000    -4.8342000000     0.7115000000
   44      H       3.3824000000    -3.5478000000    -0.1763000000
   45      H       2.3084000000    -4.6775000000    -1.0270000000
   46      Zr      3.6875000000     0.4440000000    -0.7596000000
   47      C       4.9796000000    -1.4010000000    -0.5462000000
   48      H       5.8061000000    -1.4850000000    -1.2565000000
   49      H       4.3812000000    -2.3262000000    -0.6141000000
   50      H       5.4111000000    -1.3742000000     0.4658000000
   51      C       5.1757000000     2.0373000000    -1.3491000000
   52      H       5.1221000000     3.1192000000    -1.3820000000
   53      H       5.3444000000     1.6564000000    -2.3803000000
   54      H       6.0700000000     1.7681000000    -0.7566000000
 ----------------------------------------------------------------
 Nuclear Repulsion Energy =  2313.3863466646 hartrees
 There are       91 alpha and       91 beta electrons
 Requested basis set is LANL2DZ
 There are 137 shells and 289 basis functions

 Total QAlloc Memory Limit   2000 MB
 Mega-Array Size        61 MB
 MEM_STATIC part        62 MB
 A cutoff of  1.0D-09 yielded   5931 shell pairs
 There are     30991 function pairs (     31544 Cartesian)
JobNum = 11
 
 -------------------------------------------------------
 OpenMP Integral Computing Module                       
 Release: version 1.0, May 2013, Q-Chem Inc. Pittsburgh 
 -------------------------------------------------------
 Integral Job Info:
 Integral job number is                      11
 Integral operator is                         1
 short-range coefficients               -999999
 long-range coefficients                -999999
 Omega coefficients                           0
 if combine SR and LR in K              -999999
 Integral screening is                        0
 Integral computing path is                   2
 max size of driver memory is            800000
 size of driver memory is                593474
 size of scratch memory is             11754392
 max col of scratch BK array               1296
 max len of scratch array in speh3          155
 max len of scratch index in speh4           18
 max int batch size is                      520
 min int batch size is                       52
 fixed nKL is                                52
 max L of basis functions is                  2
 order of int derivative is                   0
 number of shells is                        137
 number of basis is                         291
 number of cartesian basis is               291
 number of contracted shell pairs          5931
 number of primitive shell pairs          20768
 maxK2 (contraction) of shell pair           36
 max number of K2 of shell pair               1
 max number of CS2 of shell pair            890
 max number of PS2 of shell pair           3372
 mem total for path MDJ                  100398
 -------------------------------------------------------
 Requested basis set is LANL2DZ
 Compound shells will be simplified
 There are 183 shells and 289 basis functions
 A cutoff of  1.0D-09 yielded  11285 shell pairs
 There are     30883 function pairs (     31436 Cartesian)
 Smallest overlap matrix eigenvalue = 4.61E-04

  Scale SEOQF with 1.000000e-02/1.000000e-01/1.000000e-01

 Standard Electronic Orientation quadrupole field applied
 Nucleus-field energy     =    -0.0000000156 hartrees
 Guess from superposition of atomic densities
 Warning:  Energy on first SCF cycle will be non-variational
 A restricted hybrid HF-DFT SCF calculation will be
 performed using Pulay DIIS extrapolation
 Exchange:     0.2000 Hartree-Fock + 0.0800 Slater + 0.7200 Becke88
 Correlation:  0.8100 LYP + 0.1900 VWN1RPA
 Using SG-1 standard quadrature grid
 SCF converges when DIIS error is below 1.0E-06
 CPU 0.00 s  wall 0.00 s
 Inaccurate integrated density:
   Number of electrons =   182
   Numerical integral  =   183.003416346482
   Relative error      =     0.5513276629 %
 ---------------------------------------
  Cycle       Energy         DIIS Error
 ---------------------------------------
    1    -998.7441767332      5.45E-02
 CPU 0.00 s  wall 0.00 s
    2    -993.6751666590      7.55E-03
 CPU 0.00 s  wall 0.00 s
    3    -983.7205287488      2.33E-02
 CPU 0.00 s  wall 0.00 s
    4    -993.9155555388      5.92E-03
 CPU 0.00 s  wall 0.00 s
    5    -994.4037944322      1.14E-03
 CPU 0.00 s  wall 0.00 s
    6    -994.3984716707      1.40E-03
 CPU 0.00 s  wall 0.00 s
    7    -994.4179332828      3.11E-04
 CPU 0.00 s  wall 0.00 s
    8    -994.4188622559      1.45E-04
 CPU 0.00 s  wall 0.00 s
    9    -994.4190946143      4.66E-05
 CPU 0.00 s  wall 0.00 s
   10    -994.4191196397      1.40E-05
 CPU 0.00 s  wall 0.00 s
   11    -994.4191215194      5.70E-06
 CPU 0.00 s  wall 0.00 s
   12    -994.4191219209      1.62E-06
 CPU 0.00 s  wall 0.00 s
   13    -994.4191215926      5.48E-07 Convergence criterion met
 ---------------------------------------
 SCF time:  CPU 301.41 s  wall 300.44 s
 SCF   energy in the final basis set = -994.4191215926
 Total energy in the final basis set = -994.4191215926
 No wavefunction analysis requested
 Calculating analytic gradient of the SCF energy
JobNum = 111
 Gradient of Coulomb and Exchange Energy
                1               2               3               4               5               6
    1  6.868339898774 -5.634476410637 14.284047109153  0.371132115888 16.482655142003  6.436485388608
    2 -8.380096249456 -7.412802825368 -3.253995063335 -4.192729628254  1.623118714419 -1.622990881474
    3 14.288316165176  9.841469942801  8.246293343930  6.974364014003  0.302753775669  4.161677811703
                7               8               9              10              11              12
    1 11.216102803905  7.563552839345 -0.876144264914  2.631595541916 -5.321364481190 -0.759637313681
    2  4.523361745468  2.247851222698  2.268974563041  4.846933169360 -5.820004943348 -5.060602642996
    3 -5.617210521715 -1.830263897758 -3.761076464510 -6.565508809185 12.240116658216  5.272995782618
               13              14              15              16              17              18
    1  1.224097945281 -6.529300425311  4.174848864644 -4.795980949407  0.772455453906 -2.917687868584
    2  0.051006287293 -3.485713235038 -5.910163077970 -0.234398422696 -1.181300962518-11.402464928363
    3  7.397289261093 -0.017840609028 -2.327015493529  2.041059687535  0.650335302164 -6.903916814655
               19              20              21              22              23              24
    1  3.138082770036 -3.857053329326  2.402442427826  0.429843661823  2.164238768746  0.177201228491
    2 11.218437382111 -0.917384398691 14.105804233696  7.600389318232  7.908800001326  3.814498153031
    3  5.779416554023-17.345729536619 -8.029450578936-15.108608951588 -1.323684720001 -6.888308981979
               25              26              27              28              29              30
    1 -2.229962636612 -4.424971900293 -3.208133581801 -4.743332083722 -4.814885807903  1.064885631118
    2 -2.840959334141 -8.174113234366 -4.954268205618  3.943866293362 -4.824495854607 -4.775243824718
    3 -7.283223945950 -0.653373192790 -9.166544730066 -0.192913127438 -3.826279303024  3.873194398440
               31              32              33              34              35              36
    1 -0.831366484822 -0.782194165483  5.124216660240  3.931471410828 -2.490032062745  2.839979210411
    2 -6.571253413996 -6.678981468350 -0.130227898901 -0.711126638530 -1.968464108676  6.664148700001
    3 -8.139098336068 -1.099689623046 -5.164952102799  4.876587409473 -6.865456747392  1.988194144746
               37              38              39              40              41              42
    1  1.558263482281  5.808969553514  1.282489081914  1.853747884540 -0.638053701751  0.546484686650
    2 13.590651583450 -2.391175178345  5.155602782492  3.835782013497  7.112688787134 -2.645687488314
    3  0.050368421103 -0.860799498067 -4.013845508751  5.153257871395  2.544190352197  6.339745600822
               43              44              45              46              47              48
    1 -1.424020538961 -5.436660144115  0.083505749382-13.106027387081 -8.409096256752 -5.365989072962
    2  5.352062706537 -1.559543744223  4.148965367699 -2.232334175216  0.796369468919  1.160440448423
    3 -3.962302426368  1.071896594413  5.260699935425 10.212212808165  3.791318222096  3.985972907160
               49              50              51              52              53              54
    1  1.702030500268 -3.682019904414 -5.894313993419 -0.999194545733 -1.529009945066 -5.432256554808
    2  5.876213369495  0.480888046553 -3.841971256475 -6.978481684976  1.181609668326  0.644510742400
    3  0.656489629968 -5.394346989067  2.371574987000  0.597506423801  4.941978459954 -2.569835554763
 CPU 0.00 s  wall 0.00 s
 Gradient of SCF Energy
                1               2               3               4               5               6
    1 -0.006915435330  0.011536175818  0.012047954354  0.000540542917  0.009358474206 -0.003755096113
    2 -0.000337286358  0.013133244250  0.002697590954  0.002133280787 -0.002323927329  0.000567391638
    3 -0.000777757142 -0.004208383285 -0.001463139063 -0.003976178014  0.005661237657 -0.001760006406
                7               8               9              10              11              12
    1 -0.008564279934 -0.006453826639  0.012031964420 -0.000880485382 -0.005037286809 -0.010743391383
    2  0.001516745722 -0.001774741406 -0.008906363392 -0.005675902933  0.011020009423 -0.012406834694
    3 -0.008212608794  0.001867434377  0.009768860707  0.004916526929 -0.015621092691  0.012605332248
               13              14              15              16              17              18
    1 -0.001946715395  0.010474051210 -0.002302106466 -0.020795978574 -0.006192329607 -0.001706017760
    2 -0.006542968431  0.001939124850  0.003479069471 -0.010143854564 -0.003258194172  0.005102337994
    3 -0.004384165177  0.004777389723  0.003081673827  0.018470588836 -0.000029379815 -0.010889588015
               19              20              21              22              23              24
    1  0.000877177824 -0.000041251910  0.000776321433  0.001582107830 -0.003071077174 -0.000655446619
    2 -0.002390164774  0.001493201808  0.001590317597  0.004588618956 -0.005781732074 -0.001816466914
    3  0.002113597348 -0.003140079645 -0.003600808490 -0.004637685921  0.000080575078  0.003298088883
               25              26              27              28              29              30
    1  0.001157453324 -0.004138160013 -0.008895771318  0.008634228313  0.002068494836 -0.007748409065
    2  0.000727925629  0.000365442355 -0.009315302522 -0.015427611205  0.005337025891  0.012039483385
    3  0.004556473918 -0.008874229287 -0.000589463654 -0.004696446243  0.009896986190 -0.011959745670
               31              32              33              34              35              36
    1  0.012243718152 -0.001854850108 -0.003710836753 -0.002987039730  0.006662467862  0.008323169679
    2 -0.009226474664 -0.001142619994  0.000529339445  0.000785595805  0.005328080159  0.006040418860
    3 -0.003601920797  0.000054108504  0.001333089599  0.000577674370  0.016425094298  0.003151406008
               37              38              39              40              41              42
    1  0.001805657900 -0.000559278178 -0.001392372447 -0.000963421329 -0.008692569868 -0.001854710405
    2 -0.007597144287  0.000699644916 -0.000209773984 -0.000733160137  0.005979149664  0.006577382909
    3  0.010512516092  0.000275770625 -0.000282492229 -0.000250341102  0.004468463773 -0.013031071864
               43              44              45              46              47              48
    1  0.001545936706  0.007383627692  0.000982622985  0.001303280976  0.012083637445 -0.003382352694
    2 -0.000958534725  0.006796923855 -0.000510548854  0.018234101918 -0.006126819124 -0.001909625415
    3 -0.000807592238 -0.001838135334  0.000905365633 -0.018189880308  0.006942073155  0.002926593790
               49              50              51              52              53              54
    1 -0.004415647296 -0.001108077524  0.008542243946  0.002098309314 -0.002982020966 -0.000313376348
    2 -0.007711748023 -0.000247394404  0.011106713209 -0.005982808332 -0.001925815141  0.000575656458
    3  0.000839750331 -0.002301441024 -0.002388674045 -0.000157642234  0.001424741371  0.000738535255
 Max gradient component =       2.080E-02
 RMS gradient           =       6.692E-03
 Gradient time:  CPU 83.86 s  wall 83.98 s
 Geometry Optimization Parameters
   NAtoms,    NIC,     NZ,  NCons,   NDum,   NFix, NCnnct, MaxDiis
       54     505       0       0       0       0       0       0


** GEOMETRY OPTIMIZATION IN DELOCALIZED INTERNAL COORDINATES **
   Searching for a Minimum

   Optimization Cycle:   1

                       Coordinates (Angstroms)
     ATOM                X               Y               Z
      1  C        -0.3873000000    1.1884000000   -2.4818000000
      2  C         0.7131000000    0.8739000000   -1.6862000000
      3  C        -1.6367000000    0.7141000000   -2.0868000000
      4  H        -0.2839000000    1.7784000000   -3.3914000000
      5  C        -1.7657000000   -0.0713000000   -0.9276000000
      6  H        -2.5192000000    0.9495000000   -2.6809000000
      7  C        -0.6572000000   -0.4009000000   -0.1592000000
      8  H        -2.7563000000   -0.4274000000   -0.6279000000
      9  C         0.6340000000    0.0596000000   -0.5200000000
     10  H        -0.7667000000   -1.0260000000    0.7301000000
     11  O         2.0391000000    1.3205000000   -2.0261000000
     12  C         2.1039000000    2.6456000000   -2.6514000000
     13  H         1.8586000000    2.5071000000   -3.7130000000
     14  H         3.1394000000    2.9996000000   -2.5156000000
     15  H         1.3965000000    3.3167000000   -2.1465000000
     16  N         1.8206000000   -0.2321000000    0.1546000000
     17  C         1.8208000000   -0.9819000000    1.3836000000
     18  C         2.2307000000   -0.3167000000    2.5650000000
     19  C         1.5040000000   -2.3623000000    1.4038000000
     20  C         2.2449000000   -1.0341000000    3.7705000000
     21  C         1.4921000000   -3.0324000000    2.6346000000
     22  C         1.8544000000   -2.3729000000    3.8105000000
     23  H         1.1988000000   -4.0848000000    2.6731000000
     24  H         1.8374000000   -2.9074000000    4.7607000000
     25  H         2.5538000000   -0.5424000000    4.6953000000
     26  C         2.6412000000    1.1445000000    2.6250000000
     27  C         3.7994000000    1.5115000000    1.6620000000
     28  H         4.4472000000    0.6031000000    1.4110000000
     29  H         4.4956000000    2.2009000000    2.1848000000
     30  H         3.4313000000    2.1343000000    0.7773000000
     31  C         1.4341000000    2.0636000000    2.4235000000
     32  H         1.7073000000    3.1214000000    2.5033000000
     33  H         0.6723000000    1.8769000000    3.1952000000
     34  H         0.9352000000    1.9133000000    1.4597000000
     35  H         3.0358000000    1.3401000000    3.6629000000
     36  C        -0.0811000000   -3.9147000000    0.1965000000
     37  C         1.2497000000   -3.1583000000    0.1347000000
     38  H        -0.9232000000   -3.2330000000    0.3609000000
     39  H        -0.1054000000   -4.6638000000    0.9958000000
     40  H        -0.2701000000   -4.4485000000   -0.7435000000
     41  C         2.4345000000   -4.1067000000   -0.1000000000
     42  H         1.1919000000   -2.4747000000   -0.7497000000
     43  H         2.5534000000   -4.8342000000    0.7115000000
     44  H         3.3824000000   -3.5478000000   -0.1763000000
     45  H         2.3084000000   -4.6775000000   -1.0270000000
     46  Zr        3.6875000000    0.4440000000   -0.7596000000
     47  C         4.9796000000   -1.4010000000   -0.5462000000
     48  H         5.8061000000   -1.4850000000   -1.2565000000
     49  H         4.3812000000   -2.3262000000   -0.6141000000
     50  H         5.4111000000   -1.3742000000    0.4658000000
     51  C         5.1757000000    2.0373000000   -1.3491000000
     52  H         5.1221000000    3.1192000000   -1.3820000000
     53  H         5.3444000000    1.6564000000   -2.3803000000
     54  H         6.0700000000    1.7681000000   -0.7566000000
   Point Group: c1    Number of degrees of freedom:   156


   Energy is   -994.419121593


 Attempting to Generate Delocalized Internal Coordinates

156 Hessian modes will be used to form the next step
  Hessian Eigenvalues:
     0.002000    0.002000    0.004366    0.004460    0.004947    0.005144
     0.005297    0.006598    0.006828    0.007932    0.010217    0.011797
     0.014130    0.014615    0.015037    0.015324    0.016157    0.017350
     0.018196    0.018661    0.019009    0.021357    0.021576    0.021699
     0.022250    0.022426    0.022472    0.022569    0.022761    0.022776
     0.022824    0.022990    0.023104    0.023242    0.026017    0.029254
     0.035792    0.039091    0.040389    0.042099    0.042827    0.043428
     0.049461    0.049968    0.052948    0.053908    0.054212    0.055220
     0.055810    0.056056    0.056228    0.057483    0.061685    0.076549
     0.077412    0.080431    0.080660    0.083053    0.083746    0.089939
     0.091407    0.103686    0.108935    0.112916    0.135479    0.156419
     0.159989    0.159992    0.159996    0.159997    0.159999    0.159999
     0.160000    0.160000    0.160000    0.160000    0.160000    0.160000
     0.160000    0.160000    0.160000    0.160000    0.160000    0.160000
     0.160000    0.160000    0.160000    0.160000    0.160000    0.160000
     0.160000    0.168117    0.180019    0.180654    0.190863    0.206853
     0.219991    0.220897    0.223913    0.226041    0.235329    0.243401
     0.246653    0.248345    0.249576    0.249706    0.263328    0.285888
     0.289055    0.292405    0.293771    0.304142    0.308175    0.316358
     0.323715    0.325435    0.330242    0.332499    0.333478    0.333818
     0.336292    0.336461    0.338665    0.338987    0.339725    0.340920
     0.341373    0.341459    0.341589    0.341702    0.341936    0.342985
     0.344472    0.344664    0.345233    0.345836    0.347724    0.348618
     0.349155    0.354044    0.355478    0.361166    0.361431    0.383624
     0.388429    0.407661    0.408803    0.429941    0.430841    0.445753
     0.448192    0.450133    0.452665    0.461906    0.462814    0.472272

 Minimum Search - Taking Simple RFO Step
 Searching for Lamda that Minimizes Along All modes
 Value Taken    Lamda =  -0.03172057
 Calculated Step too Large.  Step scaled by  0.507153
 Step Taken.  Stepsize is  0.300000

                             Maximum     Tolerance    Cnvgd?
         Gradient           0.023279      0.000300      NO
         Displacement       0.145667      0.001200      NO
         Energy change     *********      0.000001      NO


 New Cartesian Coordinates Obtained by Inverse Iteration

 Displacement from previous Coordinates is:  1.596607
 ----------------------------------------------------------------
             Standard Nuclear Orientation (Angstroms)
    I     Atom           X                Y                Z
 ----------------------------------------------------------------
    1      C      -0.3637781935     1.1264999395    -2.4882188667
    2      C       0.7463075063     0.8399498844    -1.6983127652
    3      C      -1.6071141369     0.6367215492    -2.0838180414
    4      H      -0.2758942442     1.7119639346    -3.3985630985
    5      C      -1.7106411623    -0.1327455911    -0.9152556773
    6      H      -2.4937932103     0.8523842490    -2.6738441103
    7      C      -0.5855512851    -0.4319806449    -0.1525707445
    8      H      -2.6867455141    -0.5008231711    -0.6008996658
    9      C       0.6925005977     0.0406301028    -0.5320096209
   10      H      -0.6747027615    -1.0398315005     0.7445256072
   11      O       2.0668918122     1.3212756292    -2.0310923866
   12      C       2.1064779205     2.6517059881    -2.6778265613
   13      H       1.8677041188     2.5200467722    -3.7376683569
   14      H       3.1239854002     3.0348798715    -2.5511283134
   15      H       1.3844661527     3.3069581370    -2.1807501872
   16      N       1.8943645249    -0.2346238039     0.1328371528
   17      C       1.8873786369    -0.9980734445     1.3612090238
   18      C       2.2749468455    -0.3350278080     2.5562883473
   19      C       1.5249207071    -2.3765330929     1.3865263439
   20      C       2.2672072146    -1.0512995133     3.7624660830
   21      C       1.4839981599    -3.0316430007     2.6269074523
   22      C       1.8553302712    -2.3823456355     3.8038645904
   23      H       1.1627855146    -4.0708863824     2.6704844623
   24      H       1.8172840324    -2.9119390856     4.7531419606
   25      H       2.5636729805    -0.5564357115     4.6858638194
   26      C       2.6605613604     1.1371090273     2.6278462959
   27      C       3.8159769861     1.5432242252     1.6777469869
   28      H       4.4823508581     0.6651966349     1.4235129185
   29      H       4.4953762217     2.2447437264     2.1917048971
   30      H       3.4338285864     2.1523863743     0.8054823153
   31      C       1.4419959286     2.0531901250     2.4309778995
   32      H       1.7103909666     3.1119701337     2.5277348602
   33      H       0.6804830957     1.8463770763     3.1942334176
   34      H       0.9594208735     1.9095173608     1.4585112792
   35      H       3.0370400644     1.3220981239     3.6587417076
   36      C      -0.1820457349    -3.8448572283     0.2013829249
   37      C       1.2113151235    -3.1967302231     0.1345782043
   38      H      -0.9695992168    -3.0969440763     0.3422888068
   39      H      -0.2666301484    -4.5707459235     1.0178396615
   40      H      -0.4023771254    -4.3834707607    -0.7283676058
   41      C       2.2887278295    -4.2784844970    -0.0747526973
   42      H       1.2141184201    -2.5350831715    -0.7544015022
   43      H       2.3155424863    -4.9922252252     0.7567809081
   44      H       3.2909595310    -3.8430770882    -0.1560819883
   45      H       2.0969395464    -4.8522624216    -0.9890922312
   46      Zr      3.7324873994     0.4897053668    -0.7546393237
   47      C       5.0792209874    -1.2744675226    -0.5845310025
   48      H       5.9069781017    -1.3004938573    -1.3025586476
   49      H       4.5236429157    -2.2166773118    -0.6739702303
   50      H       5.5145183358    -1.2513739269     0.4279512515
   51      C       5.1493396632     2.1324068764    -1.3161424228
   52      H       5.0447830602     3.2152001872    -1.3308050002
   53      H       5.3474686290     1.7825966829    -2.3540200498
   54      H       6.0518833664     1.8921436412    -0.7237080806
 ----------------------------------------------------------------
 Nuclear Repulsion Energy =  2309.5600748653 hartrees
 There are       91 alpha and       91 beta electrons
 Applying Cartesian multipole field
    Component          Value
    ---------          -----
     (2,0,0)        1.00000E-12
     (0,2,0)        2.00000E-11
     (0,0,2)       -3.00000E-11
 Nucleus-field energy     =    -0.0000000147 hartrees
 Requested basis set is LANL2DZ
 There are 137 shells and 289 basis functions
 A cutoff of  1.0D-09 yielded   5903 shell pairs
 There are     30892 function pairs (     31445 Cartesian)
JobNum = 11
 Requested basis set is LANL2DZ
 Compound shells will be simplified
 There are 183 shells and 289 basis functions
 A cutoff of  1.0D-09 yielded  11237 shell pairs
 There are     30785 function pairs (     31338 Cartesian)
 Smallest overlap matrix eigenvalue = 4.64E-04
 Guess MOs from SCF MO coefficient file
 Reading MOs from coefficient file
 Reading MOs from coefficient file
 A restricted hybrid HF-DFT SCF calculation will be
 performed using Pulay DIIS extrapolation
 Exchange:     0.2000 Hartree-Fock + 0.0800 Slater + 0.7200 Becke88
 Correlation:  0.8100 LYP + 0.1900 VWN1RPA
 Using SG-1 standard quadrature grid
 SCF converges when DIIS error is below 1.0E-06
Geometry optimization detected.  Setting ReadMinima to 0
Setting SaveMinima to 0
 CPU 0.00 s  wall 0.00 s
 ---------------------------------------
  Cycle       Energy         DIIS Error
 ---------------------------------------
    1    -994.4206754695      1.28E-03
 CPU 0.00 s  wall 0.00 s
    2    -994.4283971295      1.77E-04
 CPU 0.00 s  wall 0.00 s
    3    -994.4277230366      3.08E-04
 CPU 0.00 s  wall 0.00 s
    4    -994.4288632204      5.87E-05
 CPU 0.00 s  wall 0.00 s
    5    -994.4288947197      2.86E-05
 CPU 0.00 s  wall 0.00 s
    6    -994.4289031269      1.27E-05
 CPU 0.00 s  wall 0.00 s
    7    -994.4289045209      2.53E-06
 CPU 0.00 s  wall 0.00 s
    8    -994.4289046364      1.42E-06
 CPU 0.00 s  wall 0.00 s
    9    -994.4289046606      3.45E-07 Convergence criterion met
 ---------------------------------------
 SCF time:  CPU 197.58 s  wall 197.29 s
 SCF   energy in the final basis set = -994.4289046606
 Total energy in the final basis set = -994.4289046606
 No wavefunction analysis requested
 Calculating analytic gradient of the SCF energy
JobNum = 111
 Gradient of Coulomb and Exchange Energy
                1               2               3               4               5               6
    1  7.121277301121 -5.452438897932 14.484234199154  0.475152661864 16.368412525376  6.501234986559
    2 -7.867964377944 -7.556790554174 -3.049177079907 -4.147633790476  1.703039079707 -1.497855053230
    3 14.282332948233 10.218132916519  8.441603019726  6.989055692178  0.139468635501  4.153727814303
                7               8               9              10              11              12
    1 11.067301165028  7.545816998676 -1.549497213637  2.431510018348 -5.231032343999 -0.784623294907
    2  4.373806508760  2.343006161076  2.286382133874  4.800540223503 -5.724094645000 -4.804707976022
    3 -5.632569238469 -1.929095381410 -3.837631589551 -6.674441705233 11.883794497972  5.348617517842
               13              14              15              16              17              18
    1  1.165806558044 -6.394455034169  4.305298097296 -5.485436902340 -0.486414742612 -3.152828209787
    2 -0.171342402203 -3.747416317225 -5.807408035622 -0.363158193148 -1.010653613746-10.870256566232
    3  7.389384389278  0.138843278925 -2.235651664219  2.300569179597  1.101596164748 -7.027239860252
               19              20              21              22              23              24
    1  2.809616974879 -3.980343168476  2.783519137340  0.276727315143  2.348664296260  0.306758627131
    2 11.067820250652 -0.811616536903 13.653422660660  7.763882423991  7.832489659726  3.789327372986
    3  5.902898832327-17.271212962808 -7.941343124357-15.067440854959 -1.368777521182 -6.891216874922
               25              26              27              28              29              30
    1 -2.147687834027 -4.086430368865 -3.159356667919 -4.846148735061 -4.785802951044  1.165240098925
    2 -2.881605293151 -8.120165443980 -4.953470168174  3.774852444853 -4.901773815723 -4.695095566719
    3 -7.269453603256 -0.503775787809 -9.460358131856 -0.117854844345 -3.659777869543  3.858712190952
               31              32              33              34              35              36
    1 -0.609085378636 -0.760337610417  5.117723221644  3.779635983466 -2.370800173555  2.865740412313
    2 -6.739093198364 -6.673154071731  0.018904079662 -0.720425256648 -1.881068670011  6.769990522823
    3 -8.197612307254 -1.178103984401 -5.177953851286  4.959384045513 -6.885792442288  1.969256419407
               37              38              39              40              41              42
    1  1.927881676983  5.543040264339  1.645886069226  2.067384434739 -0.341125302923  0.242183477065
    2 13.490420340033 -2.832548811783  4.964450873938  3.833390400899  7.193508820577 -2.585451405995
    3 -0.242507916116 -0.776552346537 -4.127032767702  5.111120149519  2.779054483443  6.323231381274
               43              44              45              46              47              48
    1 -0.814006938809 -5.883385649515  0.464249689355-13.156013244739 -8.417807543324 -5.357185937130
    2  5.252860529802 -0.788985093355  4.173396199479 -2.369913408403  0.410981964189  0.824075271058
    3 -4.050816030703  0.859833917660  5.150975184280  9.955383464498  3.556840493986  4.055604523865
               49              50              51              52              53              54
    1  1.720288161523 -3.702764671102 -5.788159166348 -0.638785080326 -1.690308206200 -5.458323083995
    2  6.050532350402  0.527666412036 -3.815442736299 -6.997079054465  1.009546654773  0.477053797177
    3  0.977127200800 -5.410964311224  2.176554416167  0.480380170526  4.987207344063 -2.555513301416
 CPU 0.00 s  wall 0.00 s
 Gradient of SCF Energy
                1               2               3               4               5               6
    1 -0.005107104216  0.007318538193  0.006885178696  0.000147987494  0.005333578135 -0.002291129586
    2 -0.000885600982  0.007827057852  0.001971198368  0.000951633130 -0.001597954729  0.000196483635
    3 -0.000618024636 -0.000819641288 -0.001440992415 -0.001957519477  0.003504055472 -0.000659981468
                7               8               9              10              11              12
    1 -0.005408493362 -0.003462283393  0.010765239541 -0.000102387933 -0.004374711833 -0.005956619389
    2 -0.000676956340 -0.000777371413 -0.005199339670 -0.004287499626  0.004741138280 -0.007462458454
    3 -0.005305597704  0.000795593450  0.005310182442  0.002635309995 -0.008205811503  0.009185897217
               13              14              15              16              17              18
    1 -0.000568653731  0.005329357367 -0.000865511414 -0.013631652069 -0.002866650854 -0.000961069800
    2 -0.002610675569  0.002189193979  0.002319560236 -0.006342965053  0.000340521636  0.003696492405
    3 -0.002483937964  0.002449631792  0.001296948807  0.013188029676 -0.000690153256 -0.005273439509
               19              20              21              22              23              24
    1 -0.000363209342  0.000350819048 -0.000795342296  0.001552796042 -0.001915331471 -0.000708925754
    2 -0.002219683631  0.000444971760  0.000379751230  0.002582725281 -0.002648917341 -0.000868066515
    3  0.001866749906 -0.001703590106 -0.001709505063 -0.002925370957  0.000326507707  0.001842201902
               25              26              27              28              29              30
    1  0.000414876508 -0.002330706910 -0.004997828041  0.006011603852  0.000607221848 -0.006122453864
    2  0.000095613612  0.000294742276 -0.007029406852 -0.010177420559  0.002658256388  0.008655026694
    3  0.002486479564 -0.004172983858 -0.002136406309 -0.003532459986  0.006062839543 -0.007318218624
               31              32              33              34              35              36
    1  0.008597686364 -0.001528783270 -0.002269760558 -0.001997762145  0.003286513269  0.007250364706
    2 -0.005848820570 -0.000249821667  0.000404526758  0.000396588789  0.003539078101  0.002766584873
    3 -0.002850155669  0.000032795462  0.000747856300  0.000527487724  0.009244009940  0.000976319075
               37              38              39              40              41              42
    1  0.000666260251 -0.000533848959 -0.001387338052 -0.001052836078 -0.004448791784 -0.002067310102
    2 -0.004828510969  0.001649560133 -0.000182915834 -0.000684970801  0.003268953969  0.003378861336
    3  0.005873373177  0.000244249860 -0.000319407104 -0.000054795759  0.002458652288 -0.007137298464
               43              44              45              46              47              48
    1  0.000875184777  0.000155498772  0.000787733032  0.004251320321  0.005949324956 -0.002017801690
    2 -0.000567035886  0.000077804549 -0.000830767979  0.014596133065 -0.002726724435 -0.001470180482
    3 -0.000426817341 -0.000036169536  0.000249491530 -0.016864247059  0.006041578870  0.001314828028
               49              50              51              52              53              54
    1 -0.000010960122 -0.001006342346  0.006000130741  0.001488538326 -0.002535091583 -0.000339060278
    2  0.000113566758  0.000134651592  0.005487308833 -0.003186111796 -0.002090416435  0.000292608128
    3  0.000100284525 -0.001121609327  0.000280143895 -0.000426250665  0.000725542812  0.000423344136
 Max gradient component =       1.686E-02
 RMS gradient           =       4.302E-03
 Gradient time:  CPU 98.18 s  wall 98.19 s
 Geometry Optimization Parameters
   NAtoms,    NIC,     NZ,  NCons,   NDum,   NFix, NCnnct, MaxDiis
       54     505       0       0       0       0       0       0

 Cartesian Hessian Update
 Hessian Updated using BFGS Update


** GEOMETRY OPTIMIZATION IN DELOCALIZED INTERNAL COORDINATES **
   Searching for a Minimum

   Optimization Cycle:   2

                       Coordinates (Angstroms)
     ATOM                X               Y               Z
      1  C        -0.3637781935    1.1264999395   -2.4882188667
      2  C         0.7463075063    0.8399498844   -1.6983127652
      3  C        -1.6071141369    0.6367215492   -2.0838180414
      4  H        -0.2758942442    1.7119639346   -3.3985630985
      5  C        -1.7106411623   -0.1327455911   -0.9152556773
      6  H        -2.4937932103    0.8523842490   -2.6738441103
      7  C        -0.5855512851   -0.4319806449   -0.1525707445
      8  H        -2.6867455141   -0.5008231711   -0.6008996658
      9  C         0.6925005977    0.0406301028   -0.5320096209
     10  H        -0.6747027615   -1.0398315005    0.7445256072
     11  O         2.0668918122    1.3212756292   -2.0310923866
     12  C         2.1064779205    2.6517059881   -2.6778265613
     13  H         1.8677041188    2.5200467722   -3.7376683569
     14  H         3.1239854002    3.0348798715   -2.5511283134
     15  H         1.3844661527    3.3069581370   -2.1807501872
     16  N         1.8943645249   -0.2346238039    0.1328371528
     17  C         1.8873786369   -0.9980734445    1.3612090238
     18  C         2.2749468455   -0.3350278080    2.5562883473
     19  C         1.5249207071   -2.3765330929    1.3865263439
     20  C         2.2672072146   -1.0512995133    3.7624660830
     21  C         1.4839981599   -3.0316430007    2.6269074523
     22  C         1.8553302712   -2.3823456355    3.8038645904
     23  H         1.1627855146   -4.0708863824    2.6704844623
     24  H         1.8172840324   -2.9119390856    4.7531419606
     25  H         2.5636729805   -0.5564357115    4.6858638194
     26  C         2.6605613604    1.1371090273    2.6278462959
     27  C         3.8159769861    1.5432242252    1.6777469869
     28  H         4.4823508581    0.6651966349    1.4235129185
     29  H         4.4953762217    2.2447437264    2.1917048971
     30  H         3.4338285864    2.1523863743    0.8054823153
     31  C         1.4419959286    2.0531901250    2.4309778995
     32  H         1.7103909666    3.1119701337    2.5277348602
     33  H         0.6804830957    1.8463770763    3.1942334176
     34  H         0.9594208735    1.9095173608    1.4585112792
     35  H         3.0370400644    1.3220981239    3.6587417076
     36  C        -0.1820457349   -3.8448572283    0.2013829249
     37  C         1.2113151235   -3.1967302231    0.1345782043
     38  H        -0.9695992168   -3.0969440763    0.3422888068
     39  H        -0.2666301484   -4.5707459235    1.0178396615
     40  H        -0.4023771254   -4.3834707607   -0.7283676058
     41  C         2.2887278295   -4.2784844970   -0.0747526973
     42  H         1.2141184201   -2.5350831715   -0.7544015022
     43  H         2.3155424863   -4.9922252252    0.7567809081
     44  H         3.2909595310   -3.8430770882   -0.1560819883
     45  H         2.0969395464   -4.8522624216   -0.9890922312
     46  Zr        3.7324873994    0.4897053668   -0.7546393237
     47  C         5.0792209874   -1.2744675226   -0.5845310025
     48  H         5.9069781017   -1.3004938573   -1.3025586476
     49  H         4.5236429157   -2.2166773118   -0.6739702303
     50  H         5.5145183358   -1.2513739269    0.4279512515
     51  C         5.1493396632    2.1324068764   -1.3161424228
     52  H         5.0447830602    3.2152001872   -1.3308050002
     53  H         5.3474686290    1.7825966829   -2.3540200498
     54  H         6.0518833664    1.8921436412   -0.7237080806
   Point Group: c1    Number of degrees of freedom:   156


   Energy is   -994.428904661

 Hessian Updated using BFGS Update

139 Hessian modes will be used to form the next step
  Hessian Eigenvalues:
     0.002000    0.002002    0.004233    0.004465    0.004947    0.005144
     0.005296    0.006822    0.007468    0.007972    0.010383    0.011997
     0.013923    0.014871    0.015167    0.015352    0.016567    0.017245
     0.018312    0.018683    0.020997    0.021541    0.021667    0.022242
     0.022379    0.022439    0.022498    0.022594    0.022771    0.022781
     0.022984    0.023101    0.023239    0.024389    0.029231    0.031985
     0.035861    0.039481    0.040360    0.042296    0.042829    0.043439
     0.049416    0.050168    0.052906    0.053888    0.054204    0.055267
     0.055784    0.056227    0.056292    0.059156    0.061533    0.075206
     0.077365    0.079287    0.080433    0.083531    0.083961    0.090552
     0.093402    0.098014    0.107029    0.112786    0.131506    0.153723
     0.157068    0.159989    0.159992    0.159996    0.159997    0.159999
     0.159999    0.161567    0.168133    0.174615    0.184574    0.204366
     0.207678    0.218852    0.220065    0.222550    0.225971    0.235750
     0.243423    0.246709    0.248245    0.249686    0.262862    0.272784
     0.286702    0.289179    0.290381    0.293412    0.304129    0.308188
     0.314819    0.323708    0.324512    0.330241    0.331875    0.332955
     0.336127    0.336374    0.338026    0.338864    0.339707    0.340914
     0.341000    0.341306    0.341500    0.341589    0.341729    0.342035
     0.343605    0.344462    0.344726    0.345165    0.345970    0.347631
     0.348492    0.349121    0.354617    0.356327    0.359633    0.376071
     0.383480    0.389011    0.408748    0.422316    0.430654    0.436290
     0.446673    0.448275    0.452603    0.459745    0.462041    0.462602
     0.472451

 Minimum Search - Taking Simple RFO Step
 Searching for Lamda that Minimizes Along All modes
 Value Taken    Lamda =  -0.02230533
 Calculated Step too Large.  Step scaled by  0.459864
 Step Taken.  Stepsize is  0.300000

                             Maximum     Tolerance    Cnvgd?
         Gradient           0.013078      0.000300      NO
         Displacement       0.093756      0.001200      NO
         Energy change     -0.009783      0.000001      NO


 New Cartesian Coordinates Obtained by Inverse Iteration

 Displacement from previous Coordinates is:  1.216999
 ----------------------------------------------------------------
             Standard Nuclear Orientation (Angstroms)
    I     Atom           X                Y                Z
 ----------------------------------------------------------------
    1      C      -0.3813903211     1.1348242366    -2.4882301300
    2      C       0.7261757355     0.8407945838    -1.7025562750
    3      C      -1.6413378547     0.7064497687    -2.0542288485
    4      H      -0.2839997159     1.6858083869    -3.4145092917
    5      C      -1.7499545941    -0.0037950847    -0.8536684774
    6      H      -2.5228025176     0.9320137628    -2.6416027002
    7      C      -0.6178449154    -0.3095086974    -0.0956883110
    8      H      -2.7258953450    -0.3206471933    -0.5057962700
    9      C       0.6663770871     0.0918675707    -0.5171044082
   10      H      -0.7119443154    -0.8614086343     0.8281488932
   11      O       2.0647112871     1.2837802413    -2.0425299317
   12      C       2.1414368949     2.5975753655    -2.7532538308
   13      H       1.9011052284     2.4516163693    -3.8058202227
   14      H       3.1574115574     2.9622637245    -2.6491159818
   15      H       1.4358958399     3.2825830590    -2.2830359501
   16      N       1.8802858144    -0.2075722634     0.1343215981
   17      C       1.8675367532    -0.9794830044     1.3647967967
   18      C       2.2435674925    -0.3255028927     2.5722242584
   19      C       1.5322807449    -2.3710881791     1.3761840429
   20      C       2.2399298508    -1.0510832263     3.7727934210
   21      C       1.5081513173    -3.0325494983     2.6161037793
   22      C       1.8551732805    -2.3899430400     3.8028846553
   23      H       1.2229224793    -4.0770175065     2.6490676825
   24      H       1.8316025766    -2.9298551786     4.7429362679
   25      H       2.5295137673    -0.5561180786     4.6937606971
   26      C       2.6312969323     1.1509557989     2.6446516244
   27      C       3.7998408391     1.5411428139     1.7012659797
   28      H       4.4451411843     0.6636444674     1.4624619750
   29      H       4.4923514554     2.2342965804     2.1900911698
   30      H       3.4344640551     2.1309789757     0.8302834425
   31      C       1.4257642202     2.0982584759     2.4445370170
   32      H       1.7234402734     3.1498022379     2.5480185177
   33      H       0.6607648718     1.9002477073     3.2019248659
   34      H       0.9575752929     1.9649867522     1.4643151421
   35      H       2.9964068768     1.3228902327     3.6621202915
   36      C      -0.1089643243    -3.9424318502     0.1680226428
   37      C       1.2528268099    -3.2098718018     0.1169467052
   38      H      -0.9435549698    -3.2516589081     0.3164862362
   39      H      -0.1432614770    -4.6841115282     0.9739047422
   40      H      -0.2863864746    -4.4777603299    -0.7717637144
   41      C       2.3702711004    -4.2551991095    -0.1157058041
   42      H       1.2311513229    -2.5413045085    -0.7491958974
   43      H       2.4169146617    -4.9765274134     0.7081648057
   44      H       3.3561095142    -3.7943149697    -0.1951716190
   45      H       2.1852369550    -4.8184314953    -1.0382016207
   46      Zr      3.7020266157     0.4526013151    -0.7273793752
   47      C       5.0061349452    -1.3041043062    -0.5700808577
   48      H       5.8320448147    -1.3271730455    -1.2962075708
   49      H       4.4419877437    -2.2363653386    -0.6629710547
   50      H       5.4493584782    -1.2919001805     0.4417166697
   51      C       5.1204474861     2.0714420524    -1.2867126736
   52      H       5.0074911656     3.1587301289    -1.2995178600
   53      H       5.3424581515     1.7344137405    -2.3249970067
   54      H       6.0184533516     1.8325589151    -0.6866882366
 ----------------------------------------------------------------
 Nuclear Repulsion Energy =  2308.2645303820 hartrees
 There are       91 alpha and       91 beta electrons
 Applying Cartesian multipole field
    Component          Value
    ---------          -----
     (2,0,0)        1.00000E-12
     (0,2,0)        2.00000E-11
     (0,0,2)       -3.00000E-11
 Nucleus-field energy     =    -0.0000000150 hartrees
 Requested basis set is LANL2DZ
 There are 137 shells and 289 basis functions
 A cutoff of  1.0D-09 yielded   5904 shell pairs
 There are     30838 function pairs (     31391 Cartesian)
JobNum = 11
 Requested basis set is LANL2DZ
 Compound shells will be simplified
 There are 183 shells and 289 basis functions
 A cutoff of  1.0D-09 yielded  11234 shell pairs
 There are     30756 function pairs (     31309 Cartesian)
 Smallest overlap matrix eigenvalue = 4.71E-04
 Guess MOs from SCF MO coefficient file
 Reading MOs from coefficient file
 Reading MOs from coefficient file
 A restricted hybrid HF-DFT SCF calculation will be
 performed using Pulay DIIS extrapolation
 Exchange:     0.2000 Hartree-Fock + 0.0800 Slater + 0.7200 Becke88
 Correlation:  0.8100 LYP + 0.1900 VWN1RPA
 Using SG-1 standard quadrature grid
 SCF converges when DIIS error is below 1.0E-06
Geometry optimization detected.  Setting ReadMinima to 0
Setting SaveMinima to 0
 CPU 0.00 s  wall 0.00 s
 ---------------------------------------
  Cycle       Energy         DIIS Error
 ---------------------------------------
    1    -994.4534456332      1.35E-03
 CPU 0.00 s  wall 0.00 s
    2    -994.4345840174      1.51E-04
 CPU 0.00 s  wall 0.00 s
    3    -994.4342969884      2.35E-04
 CPU 0.00 s  wall 0.00 s
    4    -994.4349444372      4.22E-05
 CPU 0.00 s  wall 0.00 s
    5    -994.4349592857      2.47E-05
 CPU 0.00 s  wall 0.00 s
    6    -994.4349654274      8.14E-06
 CPU 0.00 s  wall 0.00 s
    7    -994.4349654975      4.01E-06
 CPU 0.00 s  wall 0.00 s
    8    -994.4349661943      1.14E-06
 CPU 0.00 s  wall 0.00 s
    9    -994.4349665531      4.06E-07 Convergence criterion met
 ---------------------------------------
 SCF time:  CPU 271.94 s  wall 272.87 s
 SCF   energy in the final basis set = -994.4349665531
 Total energy in the final basis set = -994.4349665531
 No wavefunction analysis requested
 Calculating analytic gradient of the SCF energy
JobNum = 111
 Gradient of Coulomb and Exchange Energy
                1               2               3               4               5               6
    1  7.212026993502 -5.229725366116 14.645614610147  0.408670843488 16.291652729628  6.490343455680
    2 -7.260302182564 -7.110012541480 -3.201315823933 -3.942140141393  1.338606887799 -1.585946089356
    3 14.350494777938 10.828541137556  8.537270560195  7.097095083808 -0.392563190567  4.140829161473
                7               8               9              10              11              12
    1 11.464775788434  7.551946581303 -1.749381862392  2.475508685757 -5.210833905431 -0.982358790297
    2  3.674155875533  2.001825857924  2.542931342079  4.188949763101 -5.256471385608 -4.446882038901
    3 -5.932282320784 -2.178938697513 -4.068958048282 -7.112840552177 11.621803352543  5.543604093496
               13              14              15              16              17              18
    1  1.116086203318 -6.451721594102  4.186448247801 -5.698380748101 -0.046847861343 -3.005391669507
    2 -0.231247898973 -3.683924892041 -5.938694334907 -0.353531461798 -1.387871888975-10.502519396007
    3  7.372925188829  0.430346159471 -1.977897195544  2.223250469648  1.207640689098 -7.441468078418
               19              20              21              22              23              24
    1  2.937958108576 -3.601257168920  2.546028685348  0.437768139120  2.081721785274  0.199486210624
    2 10.561503023445 -0.733251946952 13.401884054546  7.988285355761  7.898681812024  3.880514777074
    3  6.034670180269-17.331832505097 -7.791086466490-15.074936485704 -1.284401051503 -6.850573373715
               25              26              27              28              29              30
    1 -2.114226565900 -3.758682745790 -3.121501035800 -4.787629534768 -4.997353750505  0.996934803344
    2 -2.919490893220 -7.939095247248 -5.288902268450  3.787636574458 -4.838730408225 -4.568148427968
    3 -7.258581704776 -0.376624992214 -9.855270598741 -0.085309128267 -3.330279925827  4.021798380733
               31              32              33              34              35              36
    1 -0.304712112301 -0.973453329442  5.087884058921  3.577399489209 -2.311494847034  2.922291702449
    2 -7.016095996072 -6.653624410230 -0.004109256489 -0.765990745018 -1.779855218247  6.767496734598
    3 -8.240842436178 -1.196271338502 -5.191713558210  5.048620271356 -6.872347108722  2.108790901266
               37              38              39              40              41              42
    1  1.693212616865  5.803675590920  1.281371577200  1.812837044011 -0.470158554293  0.316508169080
    2 13.766093087292 -2.463807702226  5.068551840382  3.799860616173  7.233796430735 -2.726652688456
    3 -0.162546812768 -0.721927025383 -4.043840250908  5.157427908195  2.907418507896  6.136624334485
               43              44              45              46              47              48
    1 -0.920042492396 -5.770404386737  0.422956108975-13.071523736699 -8.283809825986 -5.374837233921
    2  5.228716927992 -0.944955729051  4.087592765801 -2.370093043804  0.320283783930  0.777357662496
    3 -4.032832881068  0.890168853152  5.236059822147  9.768207305779  3.578878474746  4.129861897328
               49              50              51              52              53              54
    1  1.748175425621 -3.797717912960 -5.792464474092 -0.548313916441 -1.871564540438 -5.463493692881
    2  6.033197419370  0.607637543679 -3.500977489527 -6.962078777960  0.940151896037  0.481008292846
    3  0.979877934600 -5.466234674438  1.959693032437  0.480082221115  5.029746614351 -2.549326912107
 CPU 0.00 s  wall 0.00 s
 Gradient of SCF Energy
                1               2               3               4               5               6
    1 -0.002363814072  0.001527337481  0.000530251654 -0.000172236338  0.000449293801 -0.000279569680
    2 -0.001245865528  0.001234616738  0.000690938713 -0.000410804734 -0.000556602807 -0.000056874771
    3 -0.000365127993  0.003649879503 -0.001494758187  0.000447245603  0.001194484374  0.000612344948
                7               8               9              10              11              12
    1 -0.002266863716  0.000209462361  0.007435422411  0.000405890646 -0.002814673545 -0.000380441297
    2 -0.000113865437  0.000563132324 -0.000967506110  0.000811935778 -0.001533259497 -0.000444479214
    3 -0.001582828528 -0.000595288938 -0.002322518775 -0.001540358946  0.000048896796  0.005060792037
               13              14              15              16              17              18
    1  0.000884062756 -0.001369123894  0.000745065161  0.000735866582 -0.003069765381  0.001253340789
    2  0.001425097905  0.001468474189  0.000587233727 -0.002414246804  0.004279885482  0.000757432299
    3  0.000187730017 -0.000518483049 -0.000699294339  0.007723804421 -0.000036732559  0.000046203743
               19              20              21              22              23              24
    1 -0.001139634859  0.000285904793 -0.000460596367  0.000593152664 -0.000399231687 -0.000329445854
    2 -0.000038948770 -0.000496577650 -0.001107764525  0.000196973818  0.001014583179  0.000196883095
    3  0.001179396154  0.000299107409  0.000584126382 -0.000058350486  0.000362645117 -0.000047744268
               25              26              27              28              29              30
    1 -0.000029563444  0.001218416620 -0.000459690437  0.001184929984 -0.001095643511 -0.002445288186
    2 -0.000714955728  0.000367087343 -0.004719102107 -0.003223426692 -0.000881278398  0.004256923338
    3 -0.000136757504  0.002822265069 -0.005319849816 -0.001351495286  0.001029737599 -0.001093326437
               31              32              33              34              35              36
    1  0.002577517532 -0.000943268517 -0.000409865196 -0.000752123314 -0.000646805611  0.002512741153
    2 -0.001941464986  0.000848743669  0.000368722532 -0.000185760991  0.001049566557 -0.000835488746
    3 -0.001305103821  0.000081952872 -0.000075466563  0.000272236994 -0.001068479360 -0.000293751800
               37              38              39              40              41              42
    1  0.001301717592  0.000313623836 -0.000753130105 -0.000965293924 -0.000612197811 -0.000702678757
    2 -0.001386027171 -0.001197318823 -0.000233590296 -0.000404058654  0.001092827286 -0.001143159419
    3 -0.000767156940 -0.000128977177 -0.000157575331  0.000096020730 -0.000196425161  0.000785022533
               43              44              45              46              47              48
    1  0.000544089178 -0.001908047510  0.000703372082  0.002507544620 -0.001827939866 -0.000619684095
    2  0.000031625333 -0.000716942977 -0.000781214616  0.009104253401  0.000218260759 -0.000688805286
    3 -0.000142858412 -0.000019365590 -0.000295196827 -0.013801462143  0.005994137027 -0.000451304785
               49              50              51              52              53              54
    1  0.000139979790 -0.000643649940  0.003690318796  0.000400264574 -0.001932339848 -0.000356960081
    2  0.001797236403  0.000421999668 -0.002207704088 -0.000051764525 -0.001987467420 -0.000098106718
    3  0.000440083339  0.000148023311  0.003655543437 -0.000642377983 -0.000125909622 -0.000087352744
 Max gradient component =       1.380E-02
 RMS gradient           =       2.166E-03
 Gradient time:  CPU 94.29 s  wall 94.23 s
 Geometry Optimization Parameters
   NAtoms,    NIC,     NZ,  NCons,   NDum,   NFix, NCnnct, MaxDiis
       54     505       0       0       0       0       0       0

 Cartesian Hessian Update
 Hessian Updated using BFGS Update


** GEOMETRY OPTIMIZATION IN DELOCALIZED INTERNAL COORDINATES **
   Searching for a Minimum

   Optimization Cycle:   3

                       Coordinates (Angstroms)
     ATOM                X               Y               Z
      1  C        -0.3813903211    1.1348242366   -2.4882301300
      2  C         0.7261757355    0.8407945838   -1.7025562750
      3  C        -1.6413378547    0.7064497687   -2.0542288485
      4  H        -0.2839997159    1.6858083869   -3.4145092917
      5  C        -1.7499545941   -0.0037950847   -0.8536684774
      6  H        -2.5228025176    0.9320137628   -2.6416027002
      7  C        -0.6178449154   -0.3095086974   -0.0956883110
      8  H        -2.7258953450   -0.3206471933   -0.5057962700
      9  C         0.6663770871    0.0918675707   -0.5171044082
     10  H        -0.7119443154   -0.8614086343    0.8281488932
     11  O         2.0647112871    1.2837802413   -2.0425299317
     12  C         2.1414368949    2.5975753655   -2.7532538308
     13  H         1.9011052284    2.4516163693   -3.8058202227
     14  H         3.1574115574    2.9622637245   -2.6491159818
     15  H         1.4358958399    3.2825830590   -2.2830359501
     16  N         1.8802858144   -0.2075722634    0.1343215981
     17  C         1.8675367532   -0.9794830044    1.3647967967
     18  C         2.2435674925   -0.3255028927    2.5722242584
     19  C         1.5322807449   -2.3710881791    1.3761840429
     20  C         2.2399298508   -1.0510832263    3.7727934210
     21  C         1.5081513173   -3.0325494983    2.6161037793
     22  C         1.8551732805   -2.3899430400    3.8028846553
     23  H         1.2229224793   -4.0770175065    2.6490676825
     24  H         1.8316025766   -2.9298551786    4.7429362679
     25  H         2.5295137673   -0.5561180786    4.6937606971
     26  C         2.6312969323    1.1509557989    2.6446516244
     27  C         3.7998408391    1.5411428139    1.7012659797
     28  H         4.4451411843    0.6636444674    1.4624619750
     29  H         4.4923514554    2.2342965804    2.1900911698
     30  H         3.4344640551    2.1309789757    0.8302834425
     31  C         1.4257642202    2.0982584759    2.4445370170
     32  H         1.7234402734    3.1498022379    2.5480185177
     33  H         0.6607648718    1.9002477073    3.2019248659
     34  H         0.9575752929    1.9649867522    1.4643151421
     35  H         2.9964068768    1.3228902327    3.6621202915
     36  C        -0.1089643243   -3.9424318502    0.1680226428
     37  C         1.2528268099   -3.2098718018    0.1169467052
     38  H        -0.9435549698   -3.2516589081    0.3164862362
     39  H        -0.1432614770   -4.6841115282    0.9739047422
     40  H        -0.2863864746   -4.4777603299   -0.7717637144
     41  C         2.3702711004   -4.2551991095   -0.1157058041
     42  H         1.2311513229   -2.5413045085   -0.7491958974
     43  H         2.4169146617   -4.9765274134    0.7081648057
     44  H         3.3561095142   -3.7943149697   -0.1951716190
     45  H         2.1852369550   -4.8184314953   -1.0382016207
     46  Zr        3.7020266157    0.4526013151   -0.7273793752
     47  C         5.0061349452   -1.3041043062   -0.5700808577
     48  H         5.8320448147   -1.3271730455   -1.2962075708
     49  H         4.4419877437   -2.2363653386   -0.6629710547
     50  H         5.4493584782   -1.2919001805    0.4417166697
     51  C         5.1204474861    2.0714420524   -1.2867126736
     52  H         5.0074911656    3.1587301289   -1.2995178600
     53  H         5.3424581515    1.7344137405   -2.3249970067
     54  H         6.0184533516    1.8325589151   -0.6866882366
   Point Group: c1    Number of degrees of freedom:   156


   Energy is   -994.434966553

 Hessian Updated using BFGS Update

139 Hessian modes will be used to form the next step
  Hessian Eigenvalues:
     0.002000    0.002002    0.004427    0.004466    0.004948    0.005144
     0.005292    0.006825    0.007634    0.008019    0.010448    0.011906
     0.014248    0.014934    0.015289    0.015370    0.016481    0.017425
     0.018602    0.019531    0.020719    0.021541    0.021734    0.022251
     0.022430    0.022473    0.022571    0.022769    0.022778    0.022838
     0.022989    0.023101    0.023244    0.025888    0.029239    0.035718
     0.037776    0.039092    0.041335    0.042599    0.042829    0.043300
     0.049329    0.052227    0.052908    0.053924    0.054174    0.055271
     0.055806    0.056215    0.056375    0.061309    0.067440    0.073199
     0.077436    0.080431    0.081687    0.083464    0.089867    0.092298
     0.092762    0.100645    0.111382    0.118951    0.133213    0.151213
     0.157941    0.159989    0.159992    0.159997    0.159999    0.159999
     0.161099    0.163561    0.169976    0.180500    0.185469    0.204084
     0.216736    0.219175    0.220241    0.222580    0.229120    0.235766
     0.245943    0.248103    0.248343    0.250987    0.262986    0.274315
     0.287030    0.289336    0.293305    0.293488    0.305066    0.312101
     0.320189    0.323750    0.326695    0.330241    0.332946    0.334533
     0.336188    0.336389    0.338659    0.338897    0.339705    0.340911
     0.341017    0.341425    0.341589    0.341700    0.341996    0.342987
     0.343673    0.344562    0.345157    0.345955    0.347563    0.348316
     0.348807    0.350581    0.355105    0.357380    0.359514    0.381162
     0.383417    0.389174    0.408727    0.424887    0.430648    0.442577
     0.448224    0.449019    0.452645    0.461763    0.462071    0.470610
     0.484355

 Minimum Search - Taking Simple RFO Step
 Searching for Lamda that Minimizes Along All modes
 Value Taken    Lamda =  -0.00954484
 Calculated Step too Large.  Step scaled by  0.515700
 Step Taken.  Stepsize is  0.300000

                             Maximum     Tolerance    Cnvgd?
         Gradient           0.014284      0.000300      NO
         Displacement       0.097712      0.001200      NO
         Energy change     -0.006062      0.000001      NO


 New Cartesian Coordinates Obtained by Inverse Iteration

 Displacement from previous Coordinates is:  1.045051
 ----------------------------------------------------------------
             Standard Nuclear Orientation (Angstroms)
    I     Atom           X                Y                Z
 ----------------------------------------------------------------
    1      C      -0.3799784813     1.0755488840    -2.4903767805
    2      C       0.7267325191     0.7975072594    -1.7016455937
    3      C      -1.6422036096     0.6686436619    -2.0358733322
    4      H      -0.2826578941     1.5970259006    -3.4330860133
    5      C      -1.7499028222    -0.0005780896    -0.8121685210
    6      H      -2.5222920366     0.8804306731    -2.6288100442
    7      C      -0.6149094587    -0.2888236712    -0.0483205008
    8      H      -2.7238649810    -0.3012342144    -0.4481739181
    9      C       0.6657555887     0.0901367727    -0.4934423228
   10      H      -0.7069241197    -0.8086313328     0.8936915381
   11      O       2.0715556041     1.2234308813    -2.0519125349
   12      C       2.1571656823     2.4902745729    -2.8489212700
   13      H       1.9074927898     2.2771264559    -3.8869619719
   14      H       3.1774006129     2.8442496211    -2.7733128650
   15      H       1.4590564880     3.2068035735    -2.4180115077
   16      N       1.8895694405    -0.2040563024     0.1502333652
   17      C       1.8871376901    -0.9739297964     1.3814920447
   18      C       2.2524269668    -0.3283803866     2.5965925115
   19      C       1.5537814284    -2.3615698064     1.3739370547
   20      C       2.2502360035    -1.0685440043     3.7880893207
   21      C       1.5357002052    -3.0413739624     2.6037796244
   22      C       1.8784625878    -2.4126043466     3.7998706793
   23      H       1.2593969239    -4.0879695291     2.6204688692
   24      H       1.8616805882    -2.9658026380     4.7314185943
   25      H       2.5331699929    -0.5797871530     4.7137137775
   26      C       2.6256425640     1.1536107471     2.6829205972
   27      C       3.7909865203     1.5601177471     1.7407679763
   28      H       4.4428328894     0.6935858570     1.5098753901
   29      H       4.4783377157     2.2657177447     2.2154986367
   30      H       3.4213991758     2.1279035494     0.8649924204
   31      C       1.4146153022     2.1025357040     2.4997733266
   32      H       1.7184639076     3.1503932573     2.6193807743
   33      H       0.6535990947     1.8904384606     3.2558625132
   34      H       0.9504143442     1.9841145513     1.5160460672
   35      H       2.9903644931     1.3132461529     3.6984337487
   36      C      -0.1318456244    -3.8454637314     0.1175454136
   37      C       1.2579841030    -3.1608760834     0.0950256363
   38      H      -0.9428563429    -3.1292935172     0.2782162228
   39      H      -0.1933286214    -4.6057203114     0.9042000932
   40      H      -0.3149125396    -4.3479243344    -0.8385943395
   41      C       2.3444896994    -4.2363217597    -0.1607838024
   42      H       1.2671758072    -2.4671396402    -0.7482592680
   43      H       2.3550539035    -4.9830392242     0.6415101431
   44      H       3.3482205457    -3.8092365623    -0.2194371029
   45      H       2.1424153024    -4.7610187935    -1.1017031922
   46      Zr      3.7029807008     0.4385361067    -0.6928039931
   47      C       5.0384622809    -1.3012057886    -0.5565765135
   48      H       5.8624257472    -1.2964268563    -1.2869961904
   49      H       4.4944170381    -2.2458098816    -0.6572548755
   50      H       5.4900479511    -1.2926992125     0.4523327953
   51      C       5.0833089844     2.0923682470    -1.2682745098
   52      H       4.9332666193     3.1766132618    -1.2820803612
   53      H       5.3340550177     1.7696935626    -2.3045112273
   54      H       5.9846957117     1.8852077241    -0.6609765829
 ----------------------------------------------------------------
 Nuclear Repulsion Energy =  2309.9870712319 hartrees
 There are       91 alpha and       91 beta electrons
 Applying Cartesian multipole field
    Component          Value
    ---------          -----
     (2,0,0)        1.00000E-12
     (0,2,0)        2.00000E-11
     (0,0,2)       -3.00000E-11
 Nucleus-field energy     =    -0.0000000172 hartrees
 Requested basis set is LANL2DZ
 There are 137 shells and 289 basis functions
 A cutoff of  1.0D-09 yielded   5920 shell pairs
 There are     31007 function pairs (     31564 Cartesian)
JobNum = 11
 Requested basis set is LANL2DZ
 Compound shells will be simplified
 There are 183 shells and 289 basis functions
 A cutoff of  1.0D-09 yielded  11275 shell pairs
 There are     30915 function pairs (     31472 Cartesian)
 Smallest overlap matrix eigenvalue = 4.67E-04
 Guess MOs from SCF MO coefficient file
 Reading MOs from coefficient file
 Reading MOs from coefficient file
 A restricted hybrid HF-DFT SCF calculation will be
 performed using Pulay DIIS extrapolation
 Exchange:     0.2000 Hartree-Fock + 0.0800 Slater + 0.7200 Becke88
 Correlation:  0.8100 LYP + 0.1900 VWN1RPA
 Using SG-1 standard quadrature grid
 SCF converges when DIIS error is below 1.0E-06
Geometry optimization detected.  Setting ReadMinima to 0
Setting SaveMinima to 0
 CPU 0.00 s  wall 0.00 s
 ---------------------------------------
  Cycle       Energy         DIIS Error
 ---------------------------------------
    1    -994.4336243118      9.10E-04
 CPU 0.00 s  wall 0.00 s
    2    -994.4390979947      8.34E-05
 CPU 0.00 s  wall 0.00 s
    3    -994.4391114025      1.03E-04
 CPU 0.00 s  wall 0.00 s
    4    -994.4392338978      2.83E-05
 CPU 0.00 s  wall 0.00 s
    5    -994.4392410936      1.74E-05
 CPU 0.00 s  wall 0.00 s
    6    -994.4392441567      5.94E-06
 CPU 0.00 s  wall 0.00 s
    7    -994.4392446361      2.15E-06
 CPU 0.00 s  wall 0.00 s
    8    -994.4392446961      7.44E-07 Convergence criterion met
 ---------------------------------------
 SCF time:  CPU 237.93 s  wall 238.08 s
 SCF   energy in the final basis set = -994.4392446961
 Total energy in the final basis set = -994.4392446961
 No wavefunction analysis requested
 Calculating analytic gradient of the SCF energy
JobNum = 111
 Gradient of Coulomb and Exchange Energy
                1               2               3               4               5               6
    1  7.311930313152 -5.104604020904 14.646718648182  0.392234482044 16.264248725846  6.492654825297
    2 -6.884938471676 -6.930683925346 -3.163750906410 -3.742759804971  1.154187565159 -1.507852148686
    3 14.600071162887 11.159004470340  8.523255027729  7.213743477226 -0.573073822966  4.198837893839
                7               8               9              10              11              12
    1 11.639562127437  7.557212066317 -1.670299950043  2.460958812999 -5.251103926084 -1.083224269525
    2  3.246096302094  1.903969586796  2.168020681403  3.928245014179 -5.081058010592 -4.370456253649
    3 -6.338258041283 -2.312968759096 -4.283962809486 -7.338868946585 11.541470514852  5.731790462421
               13              14              15              16              17              18
    1  1.165500183385 -6.534910275473  4.170100864193 -5.846115237822 -0.376127307282 -3.044471578901
    2  0.227205283319 -3.526238910792 -6.027605989675 -0.250654000662 -1.712650385826-10.453745349289
    3  7.329414795111  0.675472427128 -1.667970455922  2.093523893227  1.141049436014 -7.765123419331
               19              20              21              22              23              24
    1  2.871862314265 -3.483391577050  2.389549547302  0.281229661343  1.990331473029  0.140622307624
    2 10.425129130942 -0.507323496882 13.572617144527  8.174138964978  7.951594675550  3.987960996002
    3  6.127560488709-17.405085920106 -7.802897112130-14.960770023621 -1.148368296353 -6.803680032477
               25              26              27              28              29              30
    1 -2.078333628423 -3.502846545892 -3.062745850757 -4.797080575924 -5.013370831134  0.972291552963
    2 -2.898454509937 -7.897812998325 -5.565870062436  3.702805605329 -4.891837253026 -4.428617318381
    3 -7.284948828196 -0.402690330619-10.081841566333 -0.053852616600 -3.149297392068  4.149279394610
               31              32              33              34              35              36
    1 -0.073938264167 -1.054276781959  5.043426028334  3.518652203588 -2.296046531586  3.099189815064
    2 -7.058932829330 -6.619755405194  0.099996229364 -0.864060937687 -1.689806999897  6.806179072942
    3 -8.221552490077 -1.277391607214 -5.212267326083  5.081673176668 -6.857440085962  2.089764188238
               37              38              39              40              41              42
    1  1.939713001391  5.742378645634  1.419751283583  1.830739296466 -0.597297011349  0.087032744487
    2 14.072871948667 -2.632083129028  5.144792794474  3.628413855331  7.176838572931 -2.960119957903
    3  0.056417086522 -0.796520437003 -3.953332990878  5.320335099220  2.960793841921  5.985196640579
               43              44              45              46              47              48
    1 -0.671296462489 -5.900996368876  0.564886515838-13.211291068375 -8.208954998331 -5.360547243940
    2  5.355484031832 -0.759415369732  3.886122124502 -2.541831208276  0.348820053358  0.607869011730
    3 -3.914003019325  0.793706244591  5.374919502363  9.515157853549  3.473554554436  4.108950937927
               49              50              51              52              53              54
    1  1.627534815562 -3.841758847442 -5.750483407698 -0.337555550894 -2.025020628877 -5.442223514120
    2  6.066106611057  0.629809353981 -3.516470401029 -6.936713990367  0.861944136638  0.294281277913
    3  1.004600414637 -5.397801303466  1.763853063621  0.500203435650  5.024634427601 -2.534266278437
 CPU 0.00 s  wall 0.00 s
 Gradient of SCF Energy
                1               2               3               4               5               6
    1 -0.000643524754 -0.001644190341 -0.001099466799  0.000135735620 -0.000644156225  0.000422635939
    2 -0.001214296858 -0.000757861727  0.000600581504 -0.000448628916 -0.000587706946 -0.000068026609
    3 -0.000212548006  0.003593320640 -0.001454903580  0.000689472984  0.000855229485  0.000674110516
                7               8               9              10              11              12
    1 -0.001254213151  0.001063722112  0.004319819319  0.000394251450 -0.001799703413  0.001024493171
    2 -0.000835798539  0.000513057185 -0.000087325135  0.000768519834 -0.001469660575  0.002817718829
    3 -0.000443807404 -0.000594157234 -0.003867409311 -0.001777778213  0.001547713582  0.003525433202
               13              14              15              16              17              18
    1  0.000875613324 -0.002229280012  0.000494067881  0.006012913939 -0.002360411957  0.001516569102
    2  0.001418220459  0.000491875932 -0.000318111469 -0.004170879378  0.003276951363 -0.000997980803
    3  0.000645008438 -0.001091572350 -0.000768732708  0.005788179139  0.000755607767  0.001489306305
               19              20              21              22              23              24
    1 -0.000646981353  0.000248170171 -0.000465020330  0.000340325691  0.000008269104 -0.000216210411
    2  0.001610616898 -0.000413396159 -0.000634446488 -0.000672389878  0.001566588485  0.000397454910
    3  0.000479453083  0.000824640942  0.000916050919  0.000999573471  0.000302701677 -0.000487432310
               25              26              27              28              29              30
    1 -0.000026186483  0.001124471043  0.001042537109 -0.000995629433 -0.000736962076 -0.000877508397
    2 -0.000508588071  0.000442220637 -0.003771107676 -0.000038691518 -0.001661716283  0.002111089201
    3 -0.000717768688  0.004037766422 -0.006396150112 -0.000445716383 -0.000545102097  0.001300966895
               31              32              33              34              35              36
    1 -0.000105077517 -0.000329629130  0.000221551322 -0.000143734628 -0.001687511523  0.000420974208
    2 -0.000097621028  0.000742492669  0.000227081564 -0.000301259174  0.000412886203 -0.000968170733
    3 -0.000689507793  0.000111089945 -0.000195844904  0.000268216864 -0.003372087496 -0.000630782571
               37              38              39              40              41              42
    1  0.000782870128 -0.000290930307 -0.000380877676 -0.000321283620  0.000987698060 -0.000608866902
    2  0.000249700129 -0.000553347115 -0.000038652316 -0.000016011774  0.000279201138 -0.001338050140
    3 -0.002266937082 -0.000050045055 -0.000168503654  0.000111300477 -0.000700917102  0.002002914824
               43              44              45              46              47              48
    1  0.000122326198 -0.001001686793  0.000124542194 -0.001731575869 -0.002038213000  0.000096859789
    2  0.000258145207 -0.000673910574 -0.000222917513  0.007074567542  0.000048282305 -0.000623004512
    3  0.000150399951 -0.000134638944 -0.000202294541 -0.012416104216  0.005542044314 -0.000623831250
               49              50              51              52              53              54
    1 -0.000208399358 -0.000188158525  0.003748457902  0.000595305852 -0.001440663634 -0.000008126993
    2  0.001331930299  0.000268750598 -0.002259754202  0.000691250757 -0.001800705520 -0.000049165978
    3  0.000453358251  0.000305543689  0.004986906433 -0.000897657162 -0.000656389673 -0.000547690337
 Max gradient component =       1.242E-02
 RMS gradient           =       1.991E-03
 Gradient time:  CPU 79.79 s  wall 79.71 s
 Geometry Optimization Parameters
   NAtoms,    NIC,     NZ,  NCons,   NDum,   NFix, NCnnct, MaxDiis
       54     505       0       0       0       0       0       0

 Cartesian Hessian Update
 Hessian Updated using BFGS Update


** GEOMETRY OPTIMIZATION IN DELOCALIZED INTERNAL COORDINATES **
   Searching for a Minimum

   Optimization Cycle:   4

                       Coordinates (Angstroms)
     ATOM                X               Y               Z
      1  C        -0.3799784813    1.0755488840   -2.4903767805
      2  C         0.7267325191    0.7975072594   -1.7016455937
      3  C        -1.6422036096    0.6686436619   -2.0358733322
      4  H        -0.2826578941    1.5970259006   -3.4330860133
      5  C        -1.7499028222   -0.0005780896   -0.8121685210
[...]
  C     -1.68163463      0.69860285     -0.62952594
  H     -2.31635965      1.29672187     -2.60562618
  C     -0.60665530      0.34223961      0.19213183
  H     -2.68158936      0.73597073     -0.21265686
  C      0.69327722      0.29746078     -0.33594003
  H     -0.76068023      0.10084146      1.23708767
  O      2.23370213      0.47545965     -2.15104606
  C      2.51240468      0.54433877     -3.60408430
  H      1.88462675     -0.18846795     -4.11258555
  H      3.56472977      0.29136598     -3.72540906
  H      2.31809711      1.55708964     -3.95977727
  N      1.87136239     -0.02961697      0.36769074
  C      1.90211887     -0.94028903      1.48931408
  C      2.31596295     -0.45299073      2.76047368
  C      1.58553671     -2.31583046      1.30280798
  C      2.36395325     -1.35485207      3.83545885
  C      1.63156565     -3.16502965      2.41837254
  C      2.01215050     -2.69533612      3.67512002
  H      1.37974407     -4.21251771      2.29468353
  H      2.04656557     -3.37149126      4.52241414
  H      2.67362090     -0.99509475      4.81167971
  C      2.67774359      1.00661557      3.06242121
  C      3.81871689      1.60203624      2.19868942
  H      4.57809533      0.84098063      1.93037073
  H      4.37456259      2.37168462      2.74601992
  H      3.42164820      2.15215888      1.32334432
  C      1.44801633      1.94533675      3.05654383
  H      1.73463892      2.95981372      3.35736418
  H      0.69091307      1.58829685      3.76131189
  H      0.99124861      1.99767481      2.06269721
  H      3.06545019      0.99690115      4.08833977
  C     -0.22251478     -3.44142812     -0.09815060
  C      1.23062181     -2.91088282     -0.06177419
  H     -0.94418198     -2.64684777      0.11741530
  H     -0.37017456     -4.24149102      0.63555693
  H     -0.45188783     -3.85040467     -1.08847057
  C      2.22888246     -4.02424078     -0.46378508
  H      1.30943281     -2.11947026     -0.81491528
  H      2.16789069     -4.88109222      0.21590745
  H      3.26394574     -3.66290004     -0.45032656
  H      2.00346002     -4.38617717     -1.47323513
 Zr      3.65343777      0.58816691     -0.44147544
  C      5.35087957     -0.81743068     -0.57190009
  H      6.27150741     -0.29471036     -0.87944361
  H      5.13746708     -1.59704791     -1.32394692
  H      5.55437778     -1.34221081      0.37377931
  C      4.14308523      2.63283202     -1.18317031
  H      3.30104310      3.33814979     -1.15322679
  H      4.50209970      2.58542355     -2.22488068
  H      4.96517665      3.05632702     -0.58172990
  54
Step 31
  C     -0.18879461      0.97229785     -2.53040618
  C      0.86210193      0.60122765     -1.70426893
  C     -1.47679483      1.02023801     -1.97502017
  H     -0.03948824      1.21316739     -3.57528269
  C     -1.67831952      0.69990058     -0.62709562
  H     -2.31399291      1.30524257     -2.60084132
  C     -0.60303689      0.34013871      0.19249406
  H     -2.67786655      0.73679454     -0.20925011
  C      0.69664041      0.29561728     -0.33667065
  H     -0.75647480      0.09583782      1.23685857
  O      2.23533897      0.47614855     -2.15316543
  C      2.51057939      0.53970637     -3.60767205
  H      1.87355634     -0.18742088     -4.11269287
  H      3.55961194      0.27461236     -3.73091388
  H      2.32533675      1.55393071     -3.96371416
  N      1.87481114     -0.03380571      0.36566009
  C      1.90318199     -0.94304267      1.48851733
  C      2.31596213     -0.45454495      2.75975185
  C      1.58524038     -2.31816773      1.30309816
  C      2.36262692     -1.35557137      3.83539941
  C      1.62979303     -3.16652674      2.41946795
  C      2.01023498     -2.69611517      3.67592052
  H      1.37683435     -4.21380435      2.29640392
  H      2.04390852     -3.37155271      4.52380096
  H      2.67181849     -0.99519684      4.81153955
  C      2.67698871      1.00553258      3.06090870
  C      3.81755135      1.60131341      2.19658485
  H      4.57613634      0.83925485      1.92870916
  H      4.37407167      2.37072589      2.74358506
  H      3.42064277      2.15250545      1.32165498
  C      1.44664552      1.94353897      3.05552883
  H      1.73309127      2.95838905      3.35529951
  H      0.69058716      1.58656760      3.76144687
  H      0.98858389      1.99497871      2.06225030
  H      3.06486486      0.99656121      4.08673263
  C     -0.22437462     -3.44186651     -0.09740667
  C      1.22963493     -2.91368599     -0.06113511
  H     -0.94474428     -2.64574798      0.11700023
  H     -0.37374780     -4.24091275      0.63707078
  H     -0.45405402     -3.85145878     -1.08740239
  C      2.22627932     -4.02880894     -0.46224259
  H      1.30964966     -2.12273566     -0.81460297
  H      2.16387922     -4.88505869      0.21810319
  H      3.26182479     -3.66890101     -0.44868550
  H      2.00051621     -4.39110183     -1.47147491
 Zr      3.65482543      0.58985556     -0.44409674
  C      5.35867902     -0.80788030     -0.57030908
  H      6.28065196     -0.28378238     -0.87020190
  H      5.14921283     -1.58334453     -1.32818697
  H      5.55730170     -1.33951134      0.37266591
  C      4.14009267      2.63660273     -1.18384070
  H      3.29552819      3.33923497     -1.16398800
  H      4.50761006      2.58630307     -2.22252298
  H      4.95596190      3.06412135     -0.57696281
  54
Step 32
  C     -0.18440458      0.97891294     -2.52826544
  C      0.86743613      0.60033100     -1.70653783
  C     -1.47112037      1.02630156     -1.97042046
  H     -0.03609115      1.22616547     -3.57179492
  C     -1.67036943      0.69879621     -0.62376338
  H     -2.30895564      1.31655550     -2.59292418
  C     -0.59411686      0.33348406      0.19166228
  H     -2.66900399      0.73466733     -0.20368443
  C      0.70498889      0.28950130     -0.33986217
  H     -0.74600634      0.08424645      1.23508684
  O      2.23922959      0.47614724     -2.16084312
  C      2.50796615      0.53451810     -3.61740546
  H      1.86026973     -0.18630742     -4.11772086
  H      3.55325797      0.25686123     -3.74460948
  H      2.33197079      1.55028497     -3.97348081
  N      1.88317036     -0.04385457      0.36049179
  C      1.90572102     -0.94901467      1.48661025
  C      2.31609414     -0.45786675      2.75753931
  C      1.58372642     -2.32322320      1.30415894
  C      2.35814755     -1.35635692      3.83536743
  C      1.62405152     -3.16922828      2.42265709
  C      2.00352000     -2.69673665      3.67845804
  H      1.36815220     -4.21600049      2.30146287
  H      2.03448748     -3.37004944      4.52812015
  H      2.66571291     -0.99428625      4.81141084
  C      2.67788029      1.00247340      3.05650633
  C      3.81715916      1.59713777      2.18950928
  H      4.57184362      0.83250887      1.91885358
  H      4.37849871      2.36323854      2.73631945
  H      3.41909140      2.15214159      1.31775791
  C      1.44747073      1.94036325      3.05308597
  H      1.73483676      2.95557522      3.35077940
  H      0.69335084      1.58430655      3.76155888
  H      0.98632858      1.99093006      2.06117237
  H      3.06754562      0.99431644      4.08165305
  C     -0.23142473     -3.43995042     -0.09418562
  C      1.22564632     -2.92022094     -0.05889920
  H     -0.94715930     -2.63906682      0.11818075
  H     -0.38565490     -4.23641036      0.64211616
  H     -0.46327434     -3.85046723     -1.08330607
  C      2.21576985     -4.04211053     -0.45683626
  H      1.31037957     -2.13144093     -0.81414480
  H      2.14797717     -4.89636356      0.22552703
  H      3.25335404     -3.68824286     -0.44342861
  H      1.98846568     -4.40546053     -1.46531030
 Zr      3.65770120      0.59186864     -0.45242009
  C      5.38007444     -0.78308777     -0.56567576
  H      6.30305059     -0.25249418     -0.84865866
  H      5.18436197     -1.55032494     -1.33671271
  H      5.56897659     -1.32680709      0.37236910
  C      4.12987333      2.64523923     -1.18091686
  H      3.28377504      3.34601670     -1.15969445
  H      4.49890351      2.60070906     -2.21942332
  H      4.94406377      3.07157409     -0.57108985
  54
Step 33
  C     -0.18307666      0.98045277     -2.52729868
  C      0.86976608      0.59952734     -1.70782732
  C     -1.46903683      1.02782684     -1.96780516
  H     -0.03584836      1.22937600     -3.57056585
  C     -1.66663776      0.69826462     -0.62138920
  H     -2.30750413      1.31964576     -2.58870672
  C     -0.58951950      0.33112275      0.19197297
  H     -2.66471766      0.73369905     -0.19996260
  C      0.70908406      0.28712113     -0.34104233
  H     -0.74022241      0.07998450      1.23512035
  O      2.24073836      0.47583912     -2.16489689
  C      2.50761046      0.53533658     -3.62154834
  H      1.85931227     -0.18492381     -4.12191676
  H      3.55285550      0.25800903     -3.75053291
  H      2.33160690      1.55139137     -3.97688223
  N      1.88737572     -0.04858934      0.35840745
  C      1.90751370     -0.95225461      1.48586611
  C      2.31622497     -0.45988068      2.75695390
  C      1.58349880     -2.32614984      1.30471507
  C      2.35466306     -1.35703932      3.83607480
  C      1.62072424     -3.17078332      2.42438762
  C      1.99859671     -2.69716076      3.68023620
  H      1.36363011     -4.21733435      2.30402006
  H      2.02723586     -3.36935240      4.53085419
  H      2.66068074     -0.99413478      4.81229584
  C      2.67950458      1.00056807      3.05498044
  C      3.81805558      1.59421755      2.18612392
  H      4.57058460      0.82847386      1.91317261
  H      4.38252014      2.35859164      2.73214223
  H      3.41842021      2.15033313      1.31612799
  C      1.44950014      1.93886326      3.05235243
  H      1.73742512      2.95406829      3.34957139
  H      0.69571400      1.58321377      3.76137862
  H      0.98757084      1.98947912      2.06074034
  H      3.07034560      0.99273261      4.07964943
  C     -0.23471701     -3.43646434     -0.09439991
  C      1.22500550     -2.92418513     -0.05785793
  H     -0.94673882     -2.63176479      0.11612518
  H     -0.39368195     -4.23126189      0.64271666
  H     -0.46736327     -3.84706108     -1.08330878
  C      2.20976427     -4.05196918     -0.45215152
  H      1.31503124     -2.13740063     -0.81453992
  H      2.13630765     -4.90469825      0.23152969
  H      3.24919073     -3.70361829     -0.43773797
  H      1.98211413     -4.41587963     -1.46034603
 Zr      3.65903290      0.59248286     -0.45687044
  C      5.39138344     -0.77065315     -0.56270829
  H      6.31475040     -0.23432902     -0.83301634
  H      5.20575099     -1.53127368     -1.34310449
  H      5.57395547     -1.32277123      0.37156315
  C      4.12174761      2.64906992     -1.18213912
  H      3.27415774      3.34794957     -1.16237587
  H      4.49242845      2.60549786     -2.22017171
  H      4.93438549      3.07759512     -0.57157532
  54
Step 34
  C     -0.18153221      0.97658406     -2.52844110
  C      0.87241469      0.59668800     -1.70993454
  C     -1.46693837      1.02411408     -1.96769709
  H     -0.03548083      1.22440008     -3.57215494
  C     -1.66303947      0.69586580     -0.62081966
  H     -2.30610330      1.31516337     -2.58802036
  C     -0.58499979      0.32936281      0.19160935
  H     -2.66067655      0.73150675     -0.19833367
  C      0.71305991      0.28474831     -0.34254476
  H     -0.73457903      0.07881893      1.23508492
  O      2.24273612      0.47414993     -2.16878009
  C      2.50905594      0.53729060     -3.62470534
  H      1.86503456     -0.18579244     -4.12664693
  H      3.55613302      0.26684234     -3.75450722
  H      2.32780424      1.55286312     -3.97911364
  N      1.89148759     -0.05136551      0.35717918
  C      1.90983878     -0.95424694      1.48539143
  C      2.31738099     -0.46152510      2.75655893
  C      1.58380024     -2.32781436      1.30491089
  C      2.35303194     -1.35789226      3.83644366
  C      1.61874677     -3.17173478      2.42515208
  C      1.99557494     -2.69765239      3.68115630
  H      1.36037117     -4.21802143      2.30520142
  H      2.02210044     -3.36921734      4.53234982
  H      2.65803610     -0.99457779      4.81283371
  C      2.68230263      0.99860483      3.05444906
  C      3.81949664      1.59177465      2.18374367
  H      4.57039516      0.82564604      1.90760673
  H      4.38668392      2.35472766      2.72890960
  H      3.41751176      2.14825420      1.31531658
  C      1.45270555      1.93739273      3.05324505
  H      1.74110233      2.95235882      3.35080984
  H      0.69906792      1.58164215      3.76236222
  H      0.99026423      1.98874437      2.06183542
  H      3.07470118      0.99010078      4.07854017
  C     -0.23945473     -3.43000331     -0.09322817
  C      1.22319242     -2.92591935     -0.05702488
  H     -0.94707528     -2.62149719      0.11740986
  H     -0.40218780     -4.22380425      0.64422232
  H     -0.47457312     -3.83964880     -1.08195463
  C      2.20096867     -4.06030549     -0.44926103
  H      1.31838612     -2.14081335     -0.81495364
  H      2.12156822     -4.91201986      0.23500147
  H      3.24252017     -3.71855146     -0.43449000
  H      1.97169711     -4.42368371     -1.45728234
 Zr      3.66054325      0.59262069     -0.46064142
  C      5.40132184     -0.76000623     -0.55913873
  H      6.32470255     -0.21636026     -0.81457823
  H      5.22756299     -1.51269091     -1.34994442
  H      5.57720420     -1.32110764      0.37090198
  C      4.11262364      2.65249425     -1.18258917
  H      3.26276080      3.34841765     -1.16169152
  H      4.48318882      2.61105620     -2.22083591
  H      4.92426093      3.08381896     -0.57251221
  54
Step 35
  C     -0.18130899      0.97392804     -2.52926948
  C      0.87295266      0.59552548     -1.71052098
  C     -1.46658068      1.02247799     -1.96816708
  H     -0.03574626      1.21975122     -3.57351753
  C     -1.66235501      0.69638359     -0.62076907
  H     -2.30591269      1.31245923     -2.58878051
  C     -0.58405989      0.33075075      0.19183066
  H     -2.65984374      0.73288034     -0.19800691
  C      0.71372894      0.28510954     -0.34268537
  H     -0.73337017      0.08145670      1.23565349
  O      2.24315199      0.47251192     -2.16946422
  C      2.50989207      0.53736620     -3.62491716
  H      1.86936956     -0.18819706     -4.12779319
  H      3.55824677      0.27176826     -3.75457002
  H      2.32467496      1.55227231     -3.97931656
  N      1.89223390     -0.05112917      0.35734302
  C      1.91061078     -0.95443954      1.48532813
  C      2.31830954     -0.46201852      2.75648910
  C      1.58451276     -2.32806210      1.30464629
  C      2.35401075     -1.35854365      3.83630356
  C      1.61954552     -3.17206432      2.42479047
  C      1.99648225     -2.69821455      3.68087636
  H      1.36133731     -4.21836847      2.30471883
  H      2.02302507     -3.36996110      4.53192713
  H      2.65913152     -0.99533247      4.81269398
  C      2.68325814      0.99803650      3.05480199
  C      3.81930228      1.59227066      2.18358969
  H      4.57071663      0.82706004      1.90620567
  H      4.38629905      2.35565296      2.72830464
  H      3.41591123      2.14788954      1.31532901
  C      1.45333040      1.93645336      3.05468839
  H      1.74148166      2.95133604      3.35273559
  H      0.69994918      1.58005641      3.76375553
  H      0.99078451      1.98814920      2.06333864
  H      3.07633010      0.98920459      4.07862207
  C     -0.24077093     -3.42578326     -0.09406872
  C      1.22343600     -2.92611206     -0.05716229
  H     -0.94618115     -2.61522877      0.11603317
  H     -0.40597296     -4.21890879      0.64357634
  H     -0.47652275     -3.83508718     -1.08277865
  C      2.19771197     -4.06395417     -0.44815379
  H      1.32169850     -2.14197205     -0.81568761
  H      2.11471301     -4.91526883      0.23616438
  H      3.24042879     -3.72585134     -0.43265482
  H      1.96798431     -4.42682528     -1.45625572
 Zr      3.66115236      0.59243383     -0.46129663
  C      5.40359658     -0.75859916     -0.55792266
  H      6.32695778     -0.21171953     -0.80694937
  H      5.23463429     -1.50769378     -1.35300130
  H      5.57694380     -1.32328975      0.37035650
  C      4.10941754      2.65326345     -1.18296340
  H      3.25770440      3.34688455     -1.16301107
  H      4.48079034      2.61160608     -2.22097213
  H      4.91957600      3.08748612     -0.57304640
  54
Step 36
  C     -0.18033401      0.97126636     -2.53043383
  C      0.87383931      0.59418126     -1.71099805
  C     -1.46566266      1.02070519     -1.96948454
  H     -0.03484173      1.21533909     -3.57509954
  C     -1.66163623      0.69668593     -0.62163546
  H     -2.30490333      1.30974620     -2.59067000
  C     -0.58343491      0.33197003      0.19158424
  H     -2.65914158      0.73406019     -0.19898489
  C      0.71431358      0.28533946     -0.34285154
  H     -0.73289922      0.08413443      1.23573749
  O      2.24409402      0.47037957     -2.16953992
  C      2.51120577      0.53490759     -3.62488984
  H      1.87221266     -0.19211236     -4.12762631
  H      3.56007503      0.27114724     -3.75403519
  H      2.32425986      1.54926040     -3.97996282
  N      1.89278977     -0.05024073      0.35777384
  C      1.91131271     -0.95408259      1.48538420
  C      2.31953968     -0.46220439      2.75652794
  C      1.58513568     -2.32766657      1.30426727
  C      2.35619710     -1.35926483      3.83591213
  C      1.62094741     -3.17212861      2.42400200
  C      1.99876676     -2.69888715      3.68006029
  H      1.36248288     -4.21833689      2.30366786
  H      2.02585384     -3.37106803      4.53074649
  H      2.66187684     -0.99640868      4.81226124
  C      2.68374098      0.99781516      3.05548116
  C      3.81848605      1.59370885      2.18400394
  H      4.57094977      0.82967564      1.90593337
  H      4.38450952      2.35793068      2.72852107
  H      3.41399363      2.14840395      1.31563387
  C      1.45305298      1.93536488      3.05663720
  H      1.74067356      2.95028048      3.35505083
  H      0.70032964      1.57805420      3.76594705
  H      0.99002999      1.98719682      2.06552476
  H      3.07738257      0.98860622      4.07909695
  C     -0.24259616     -3.42297078     -0.09285839
  C      1.22226078     -2.92495879     -0.05733339
  H     -0.94691572     -2.61176643      0.11830803
  H     -0.40770311     -4.21614727      0.64478361
  H     -0.47985388     -3.83176303     -1.08141870
  C      2.19448168     -4.06406852     -0.44971254
  H      1.32084200     -2.14073973     -0.81579723
  H      2.11054309     -4.91584365      0.23391287
  H      3.23771156     -3.72762542     -0.43469347
  H      1.96342987     -4.42576397     -1.45793134
 Zr      3.66175660      0.59221493     -0.46117234
  C      5.40482146     -0.75782572     -0.55737943
  H      6.32814641     -0.20836054     -0.80118331
  H      5.23963314     -1.50378913     -1.35603928
  H      5.57617151     -1.32567466      0.36929623
  C      4.10792978      2.65366150     -1.18234698
  H      3.25432252      3.34498094     -1.16311607
  H      4.47997821      2.61211596     -2.22014677
  H      4.91654232      3.09036534     -0.57231475

======= END OF MOLDEN-FORMATTED INPUT FILE =======


        *************************************************************
        *                                                           *
        *  Thank you very much for using Q-Chem.  Have a nice day.  *
        *                                                           *
        *************************************************************


0 sent ACK to 0 
now end server 0 ... 
