Process 0 of 2 is on gollum418.lsa.umich.edu - thread support 0
Process 1 of 2 is on gollum418.lsa.umich.edu - thread support 0
initial socket setup ...start
initial socket setup ...done 
now start server 0 ... 
                  Welcome to Q-Chem
     A Quantum Leap Into The Future Of Chemistry

 Q-Chem begins on Wed Nov  8 15:38:19 2017  

Host: gollum418.lsa.umich.edu
0

     Scratch files written to /tmp/77729142.athena/qchem15011.0//
 Parallel job on  2  processors

Checking the input file for inconsistencies...	...done.

--------------------------------------------------------------
User input:
--------------------------------------------------------------
 $rem
 JOBTYPE OPT
 EXCHANGE B3LYP
! CORRELATION PBE
! UNRESTRICTED TRUE
 SCF_ALGORITHM diis
 SCF_MAX_CYCLES 150
 BASIS LANL2DZ
 ECP LANL2DZ
 WAVEFUNCTION_ANALYSIS FALSE
 GEOM_OPT_MAX_CYCLES 300

scf_convergence 6

 SYM_IGNORE TRUE
 SYMMETRY   FALSE

molden_format true
 $end


$molecule
1 1
  C  -1.233300   1.086300  -1.655900 
  C  -0.248000   0.553900  -0.827300 
  C  -2.443300   1.466800  -1.078100 
  H  -1.075300   1.213800  -2.725800 
  C  -2.638700   1.325000   0.305500 
  H  -3.238600   1.882500  -1.700000 
  C  -1.643200   0.807100   1.123700 
  H  -3.590700   1.637600   0.746000 
  C  -0.401900   0.390200   0.582300 
  H  -1.812500   0.708900   2.201700 
  O   1.051300   0.199900  -1.340600 
  C   1.104800  -0.276100  -2.718100 
  H   0.342200  -1.058400  -2.847700 
  H   2.113900  -0.692000  -2.846300 
  H   0.932800   0.586400  -3.378900 
  N   0.701400  -0.061700   1.317500 
  C   0.634300  -0.351300   2.718800 
  C   1.610700   0.286800   3.540700 
  C  -0.283400  -1.269600   3.273700 
  C   1.559400   0.084200   4.921100 
  C  -0.300200  -1.437500   4.668900 
  C   0.596600  -0.757800   5.486600 
  H  -1.027800  -2.120700   5.114200 
  H   0.561900  -0.891000   6.569300 
  H   2.268200   0.579300   5.587400 
  C   2.715000   1.143100   2.921800 
  C   2.142600   2.397800   2.220200 
  H   1.922100   2.346500   1.110400 
  H   2.814400   3.270000   2.330300 
  H   1.190500   2.701400   2.693800 
  C   3.773800   1.604000   3.928400 
  H   4.566100   2.193400   3.448200 
  H   4.263400   0.764100   4.438800 
  H   3.336700   2.246400   4.706900 
  H   3.340200   0.429400   2.199200 
  C  -2.678800  -1.860100   2.784900 
  C  -1.210800  -2.130400   2.432200 
  H  -2.927200  -0.794000   2.720700 
  H  -2.932900  -2.190700   3.799100 
  H  -3.348900  -2.393800   2.100000 
  C  -0.861900  -3.614700   2.619000 
  H  -1.068800  -1.898800   1.345800 
  H  -1.053300  -3.965400   3.640500 
  H   0.194700  -3.812100   2.400300 
  H  -1.463200  -4.244000   1.949800 
 Zr   2.595000   0.352900   0.248300 
  C   4.049700  -1.376900   0.346800 
  H   5.041800  -1.030800   0.022600 
  H   3.705500  -2.156700  -0.348800 
  H   4.173700  -1.866600   1.317200 
  C   3.793300   2.021900  -0.685300 
  H   3.368900   2.960400  -1.033400 
  H   4.086400   1.414400  -1.571100 
  H   4.706400   2.268800  -0.131600 
$end
--------------------------------------------------------------
 ----------------------------------------------------------------
             Standard Nuclear Orientation (Angstroms)
    I     Atom           X                Y                Z
 ----------------------------------------------------------------
    1      C      -1.2333000000     1.0863000000    -1.6559000000
    2      C      -0.2480000000     0.5539000000    -0.8273000000
    3      C      -2.4433000000     1.4668000000    -1.0781000000
    4      H      -1.0753000000     1.2138000000    -2.7258000000
    5      C      -2.6387000000     1.3250000000     0.3055000000
    6      H      -3.2386000000     1.8825000000    -1.7000000000
    7      C      -1.6432000000     0.8071000000     1.1237000000
    8      H      -3.5907000000     1.6376000000     0.7460000000
    9      C      -0.4019000000     0.3902000000     0.5823000000
   10      H      -1.8125000000     0.7089000000     2.2017000000
   11      O       1.0513000000     0.1999000000    -1.3406000000
   12      C       1.1048000000    -0.2761000000    -2.7181000000
   13      H       0.3422000000    -1.0584000000    -2.8477000000
   14      H       2.1139000000    -0.6920000000    -2.8463000000
   15      H       0.9328000000     0.5864000000    -3.3789000000
   16      N       0.7014000000    -0.0617000000     1.3175000000
   17      C       0.6343000000    -0.3513000000     2.7188000000
   18      C       1.6107000000     0.2868000000     3.5407000000
   19      C      -0.2834000000    -1.2696000000     3.2737000000
   20      C       1.5594000000     0.0842000000     4.9211000000
   21      C      -0.3002000000    -1.4375000000     4.6689000000
   22      C       0.5966000000    -0.7578000000     5.4866000000
   23      H      -1.0278000000    -2.1207000000     5.1142000000
   24      H       0.5619000000    -0.8910000000     6.5693000000
   25      H       2.2682000000     0.5793000000     5.5874000000
   26      C       2.7150000000     1.1431000000     2.9218000000
   27      C       2.1426000000     2.3978000000     2.2202000000
   28      H       1.9221000000     2.3465000000     1.1104000000
   29      H       2.8144000000     3.2700000000     2.3303000000
   30      H       1.1905000000     2.7014000000     2.6938000000
   31      C       3.7738000000     1.6040000000     3.9284000000
   32      H       4.5661000000     2.1934000000     3.4482000000
   33      H       4.2634000000     0.7641000000     4.4388000000
   34      H       3.3367000000     2.2464000000     4.7069000000
   35      H       3.3402000000     0.4294000000     2.1992000000
   36      C      -2.6788000000    -1.8601000000     2.7849000000
   37      C      -1.2108000000    -2.1304000000     2.4322000000
   38      H      -2.9272000000    -0.7940000000     2.7207000000
   39      H      -2.9329000000    -2.1907000000     3.7991000000
   40      H      -3.3489000000    -2.3938000000     2.1000000000
   41      C      -0.8619000000    -3.6147000000     2.6190000000
   42      H      -1.0688000000    -1.8988000000     1.3458000000
   43      H      -1.0533000000    -3.9654000000     3.6405000000
   44      H       0.1947000000    -3.8121000000     2.4003000000
   45      H      -1.4632000000    -4.2440000000     1.9498000000
   46      Zr      2.5950000000     0.3529000000     0.2483000000
   47      C       4.0497000000    -1.3769000000     0.3468000000
   48      H       5.0418000000    -1.0308000000     0.0226000000
   49      H       3.7055000000    -2.1567000000    -0.3488000000
   50      H       4.1737000000    -1.8666000000     1.3172000000
   51      C       3.7933000000     2.0219000000    -0.6853000000
   52      H       3.3689000000     2.9604000000    -1.0334000000
   53      H       4.0864000000     1.4144000000    -1.5711000000
   54      H       4.7064000000     2.2688000000    -0.1316000000
 ----------------------------------------------------------------
 Nuclear Repulsion Energy =  2291.7955737407 hartrees
 There are       91 alpha and       91 beta electrons
 Requested basis set is LANL2DZ
 There are 137 shells and 289 basis functions

 Total QAlloc Memory Limit   2000 MB
 Mega-Array Size        61 MB
 MEM_STATIC part        62 MB
 A cutoff of  1.0D-09 yielded   5729 shell pairs
 There are     30253 function pairs (     30800 Cartesian)
JobNum = 11
 
 -------------------------------------------------------
 OpenMP Integral Computing Module                       
 Release: version 1.0, May 2013, Q-Chem Inc. Pittsburgh 
 -------------------------------------------------------
 Integral Job Info:
 Integral job number is                      11
 Integral operator is                         1
 short-range coefficients               -999999
 long-range coefficients                -999999
 Omega coefficients                           0
 if combine SR and LR in K              -999999
 Integral screening is                        0
 Integral computing path is                   2
 max size of driver memory is            800000
 size of driver memory is                593474
 size of scratch memory is             11754392
 max col of scratch BK array               1296
 max len of scratch array in speh3          155
 max len of scratch index in speh4           18
 max int batch size is                      520
 min int batch size is                       52
 fixed nKL is                                52
 max L of basis functions is                  2
 order of int derivative is                   0
 number of shells is                        137
 number of basis is                         291
 number of cartesian basis is               291
 number of contracted shell pairs          5729
 number of primitive shell pairs          20232
 maxK2 (contraction) of shell pair           36
 max number of K2 of shell pair               1
 max number of CS2 of shell pair            851
 max number of PS2 of shell pair           3282
 mem total for path MDJ                   95838
 -------------------------------------------------------
 Requested basis set is LANL2DZ
 Compound shells will be simplified
 There are 183 shells and 289 basis functions
 A cutoff of  1.0D-09 yielded  10945 shell pairs
 There are     30151 function pairs (     30698 Cartesian)
 Smallest overlap matrix eigenvalue = 4.51E-04

  Scale SEOQF with 1.000000e-01/1.000000e-01/1.000000e-02

 Standard Electronic Orientation quadrupole field applied
 Nucleus-field energy     =     0.0000000480 hartrees
 Guess from superposition of atomic densities
 Warning:  Energy on first SCF cycle will be non-variational
 A restricted hybrid HF-DFT SCF calculation will be
 performed using Pulay DIIS extrapolation
 Exchange:     0.2000 Hartree-Fock + 0.0800 Slater + 0.7200 Becke88
 Correlation:  0.8100 LYP + 0.1900 VWN1RPA
 Using SG-1 standard quadrature grid
 SCF converges when DIIS error is below 1.0E-06
 CPU 0.00 s  wall 0.00 s
 Inaccurate integrated density:
   Number of electrons =   182
   Numerical integral  =   183.000791260492
   Relative error      =     0.5498853080 %
 ---------------------------------------
  Cycle       Energy         DIIS Error
 ---------------------------------------
    1    -999.0692687589      5.47E-02
 CPU 0.00 s  wall 0.00 s
    2    -993.6893094373      7.43E-03
 CPU 0.00 s  wall 0.00 s
    3    -982.9762461818      2.51E-02
 CPU 0.00 s  wall 0.00 s
    4    -994.0523877422      5.16E-03
 CPU 0.00 s  wall 0.00 s
    5    -994.4127908024      1.17E-03
 CPU 0.00 s  wall 0.00 s
    6    -994.4163806167      1.02E-03
 CPU 0.00 s  wall 0.00 s
    7    -994.4278410321      2.30E-04
 CPU 0.00 s  wall 0.00 s
    8    -994.4283080653      1.17E-04
 CPU 0.00 s  wall 0.00 s
    9    -994.4284498304      4.99E-05
 CPU 0.00 s  wall 0.00 s
   10    -994.4284776648      1.11E-05
 CPU 0.00 s  wall 0.00 s
   11    -994.4284791679      4.21E-06
 CPU 0.00 s  wall 0.00 s
   12    -994.4284792195      1.43E-06
 CPU 0.00 s  wall 0.00 s
   13    -994.4284793882      5.14E-07 Convergence criterion met
 ---------------------------------------
 SCF time:  CPU 294.66 s  wall 293.60 s
 SCF   energy in the final basis set = -994.4284793882
 Total energy in the final basis set = -994.4284793882
 No wavefunction analysis requested
 Calculating analytic gradient of the SCF energy
JobNum = 111
 Gradient of Coulomb and Exchange Energy
                1               2               3               4               5               6
    1  5.401904486220 -5.797427996695 13.202333918906 -0.058525370057 14.863713836629  5.806727865727
    2 -4.310110657631  1.271349036587 -6.390230914012 -1.403591963757 -6.840236122195 -3.023334670939
    3 16.208447114609 11.319510001147  8.609193750243  8.027969601956 -0.512440899324  4.341547523325
                7               8               9              10              11              12
    1 10.143787353024  7.188969839324 -1.085666013165  3.090095323804 -5.482040206056 -1.177358584181
    2 -2.968215458959 -2.574051233545  0.172724681345  0.181323126122  1.675916335003  1.501388014640
    3 -7.269079017019 -2.727520358257 -3.747974358643 -8.027829569829 12.161648381410  7.811821076353
               13              14              15              16              17              18
    1  4.463602642961 -6.396815170363  0.789270302283 -4.815177551603  0.158030800559-12.531224869568
    2  5.579156333618  3.122102425290 -5.081377435572  3.335644724888  0.034952858371 -8.509984436224
    3  2.315854634937  2.206601211771  5.284719120952  3.096279772381  0.912170440265  3.708590322331
               19              20              21              22              23              24
    1  9.312456945541 -5.628077736608  6.480072868308  0.107974114989  5.098611916561  0.275901504683
    2 10.026592353337 -2.865371053207  7.938109098009  1.619308309985  4.922984632555  0.954840420800
    3  0.877831182216-15.983333763256-12.104062160439-16.702212232754 -4.233170694268 -7.807896974174
               25              26              27              28              29              30
    1 -4.757678646601 -3.673899433833 -6.582516325068  0.935721640227 -3.641607865602  5.942773104821
    2 -3.265971240449 -8.574268998814 -2.979540690578 -1.988947005190 -6.305012333182 -3.858836834702
    3 -5.790929753981 -5.870357804454 -4.108207847605  5.679279843695 -0.675692946369 -3.249874217548
               31              32              33              34              35              36
    1 -6.039089172200 -5.389939084442 -4.019612347196  1.094885632238 -3.497965655075  5.653813144417
    2 -3.083672944889 -3.643486540247  4.162560741304 -4.287394889586  2.953858978181  4.549345293277
    3 -2.822199792923  1.501815585360 -3.651369237300 -5.321433509936 -0.070973366899 -1.119654400187
               37              38              39              40              41              42
    1  7.593176523930  2.920251094290  2.933577128073  4.778853248758  2.857472764392 -0.005484033320
    2  9.635687103083 -5.496855132957  2.024260871662  3.230224724509  6.713327467245  0.123780657183
    3 -5.104470731635 -0.296416546514 -5.619999715114  3.401221427405  0.134231412977  6.845844418232
               43              44              45              46              47              48
    1  1.188543027726 -5.674767229758  3.186826899167-13.267926849566 -6.522523593820 -5.989815034643
    2  3.499618190173  2.692458043044  4.565802879966 -0.052125093394  3.483351885812 -1.079656185751
    3 -5.444456683171  1.115154854604  3.368373564039  8.377115598667  3.104434002781  1.833035318907
               49              50              51              52              53              54
    1  0.685554948365 -1.922111869445 -5.876182655985  1.336113404860 -1.956455190009 -5.701127795931
    2  5.099981312693  3.781907225752 -4.064588366820 -6.281244181610  2.259989259012 -2.184442599236
    3  3.729593104636 -5.246333924172  2.758899118821  2.619026489219  4.299083411209 -2.141401778671
 CPU 0.00 s  wall 0.00 s
 Gradient of SCF Energy
                1               2               3               4               5               6
    1 -0.003755789669  0.008503343473  0.009913009723  0.000529696762  0.008697749752 -0.004687431180
    2  0.002051323435 -0.003638502031 -0.003482656591  0.000693904288 -0.003405802249  0.002197463361
    3  0.001549800220 -0.011584744357  0.000214742336 -0.004443369190  0.002259406205 -0.002652639326
                7               8               9              10              11              12
    1 -0.004958449849 -0.006076749556  0.004133220956 -0.003704435202 -0.006662904958 -0.005283280221
    2  0.001214916217  0.002091518013 -0.008235880683 -0.003627214037 -0.000175562321  0.004336313572
    3 -0.008397430415  0.002353397928  0.006731111252  0.010038544408 -0.015466919270  0.013214252408
               13              14              15              16              17              18
    1 -0.004085716936  0.005676745061 -0.003092345908 -0.022153410164 -0.008058567079  0.002427833930
    2 -0.004792388986 -0.002604277153  0.008290590688 -0.006162067157 -0.001702968634  0.008385634156
    3  0.000893085172  0.003745680219 -0.000082946582  0.017572592141  0.002337878148 -0.001439602393
               19              20              21              22              23              24
    1 -0.000156880726 -0.004775878072  0.001783291907  0.001912417088 -0.004705772593 -0.000325529212
    2 -0.002083158072 -0.000746254887  0.001322070532 -0.000379303066 -0.003164345985 -0.000602987247
    3  0.000714942306 -0.007162428198 -0.002697881166 -0.006514228960  0.002279710013  0.004752186103
               25              26              27              28              29              30
    1  0.003508083484 -0.003682288075  0.005757660183 -0.001236843510  0.000605279664 -0.004784646142
    2  0.003673887038  0.006803802481 -0.020353789109 -0.003083738981  0.008930155382  0.007352705157
    3  0.004598716240  0.005075904221  0.012241960028 -0.016700586887  0.004033919874  0.004593423364
               31              32              33              34              35              36
    1 -0.014636147416  0.003141801723  0.002462986929  0.001701070343  0.007747061902  0.011935806555
    2  0.000328834420  0.001976876994 -0.000611422752  0.001567628958 -0.016194353838  0.000140380047
    3 -0.008406983097  0.002203749851  0.001987179328  0.004300469932 -0.019550799313  0.000343215214
               37              38              39              40              41              42
    1 -0.001235618294  0.000824313044 -0.002179018735 -0.000644591153 -0.001227837362  0.000653389808
    2 -0.002529379251  0.004147109464  0.000586482247  0.000332535168  0.010390660211  0.001620158998
    3  0.013217298175 -0.000522779306 -0.000115757071  0.000060222850  0.001795358975 -0.015609410020
               43              44              45              46              47              48
    1  0.000213742053  0.000364607457  0.000064345051  0.013878345821  0.005225841108 -0.000631513484
    2 -0.002201609201 -0.000797068155 -0.001410121719  0.019569619237 -0.013043667053 -0.000109015602
    3 -0.000093501746  0.000447397885 -0.000029181815 -0.004515338528 -0.001033778531  0.001217081375
               49              50              51              52              53              54
    1  0.002233622385  0.001664282871  0.008961046221  0.004602005323 -0.004012572533 -0.002368382504
    2  0.000072356044 -0.000366400108  0.013109246725 -0.003048673923 -0.005048697682  0.002415133670
    3  0.003264569258 -0.003254769437  0.001848660118  0.002112035675  0.001512675225 -0.003236090840
 Max gradient component =       2.215E-02
 RMS gradient           =       6.535E-03
 Gradient time:  CPU 73.90 s  wall 73.85 s
 Geometry Optimization Parameters
   NAtoms,    NIC,     NZ,  NCons,   NDum,   NFix, NCnnct, MaxDiis
       54     567       0       0       0       0       0       0


** GEOMETRY OPTIMIZATION IN DELOCALIZED INTERNAL COORDINATES **
   Searching for a Minimum

   Optimization Cycle:   1

                       Coordinates (Angstroms)
     ATOM                X               Y               Z
      1  C        -1.2333000000    1.0863000000   -1.6559000000
      2  C        -0.2480000000    0.5539000000   -0.8273000000
      3  C        -2.4433000000    1.4668000000   -1.0781000000
      4  H        -1.0753000000    1.2138000000   -2.7258000000
      5  C        -2.6387000000    1.3250000000    0.3055000000
      6  H        -3.2386000000    1.8825000000   -1.7000000000
      7  C        -1.6432000000    0.8071000000    1.1237000000
      8  H        -3.5907000000    1.6376000000    0.7460000000
      9  C        -0.4019000000    0.3902000000    0.5823000000
     10  H        -1.8125000000    0.7089000000    2.2017000000
     11  O         1.0513000000    0.1999000000   -1.3406000000
     12  C         1.1048000000   -0.2761000000   -2.7181000000
     13  H         0.3422000000   -1.0584000000   -2.8477000000
     14  H         2.1139000000   -0.6920000000   -2.8463000000
     15  H         0.9328000000    0.5864000000   -3.3789000000
     16  N         0.7014000000   -0.0617000000    1.3175000000
     17  C         0.6343000000   -0.3513000000    2.7188000000
     18  C         1.6107000000    0.2868000000    3.5407000000
     19  C        -0.2834000000   -1.2696000000    3.2737000000
     20  C         1.5594000000    0.0842000000    4.9211000000
     21  C        -0.3002000000   -1.4375000000    4.6689000000
     22  C         0.5966000000   -0.7578000000    5.4866000000
     23  H        -1.0278000000   -2.1207000000    5.1142000000
     24  H         0.5619000000   -0.8910000000    6.5693000000
     25  H         2.2682000000    0.5793000000    5.5874000000
     26  C         2.7150000000    1.1431000000    2.9218000000
     27  C         2.1426000000    2.3978000000    2.2202000000
     28  H         1.9221000000    2.3465000000    1.1104000000
     29  H         2.8144000000    3.2700000000    2.3303000000
     30  H         1.1905000000    2.7014000000    2.6938000000
     31  C         3.7738000000    1.6040000000    3.9284000000
     32  H         4.5661000000    2.1934000000    3.4482000000
     33  H         4.2634000000    0.7641000000    4.4388000000
     34  H         3.3367000000    2.2464000000    4.7069000000
     35  H         3.3402000000    0.4294000000    2.1992000000
     36  C        -2.6788000000   -1.8601000000    2.7849000000
     37  C        -1.2108000000   -2.1304000000    2.4322000000
     38  H        -2.9272000000   -0.7940000000    2.7207000000
     39  H        -2.9329000000   -2.1907000000    3.7991000000
     40  H        -3.3489000000   -2.3938000000    2.1000000000
     41  C        -0.8619000000   -3.6147000000    2.6190000000
     42  H        -1.0688000000   -1.8988000000    1.3458000000
     43  H        -1.0533000000   -3.9654000000    3.6405000000
     44  H         0.1947000000   -3.8121000000    2.4003000000
     45  H        -1.4632000000   -4.2440000000    1.9498000000
     46  Zr        2.5950000000    0.3529000000    0.2483000000
     47  C         4.0497000000   -1.3769000000    0.3468000000
     48  H         5.0418000000   -1.0308000000    0.0226000000
     49  H         3.7055000000   -2.1567000000   -0.3488000000
     50  H         4.1737000000   -1.8666000000    1.3172000000
     51  C         3.7933000000    2.0219000000   -0.6853000000
     52  H         3.3689000000    2.9604000000   -1.0334000000
     53  H         4.0864000000    1.4144000000   -1.5711000000
     54  H         4.7064000000    2.2688000000   -0.1316000000
   Point Group: c1    Number of degrees of freedom:   156


   Energy is   -994.428479388


 Attempting to Generate Delocalized Internal Coordinates

156 Hessian modes will be used to form the next step
  Hessian Eigenvalues:
     0.002000    0.002000    0.003935    0.004396    0.004710    0.004958
     0.006097    0.006587    0.007234    0.007735    0.007920    0.010189
     0.012164    0.012975    0.014080    0.015409    0.016590    0.016723
     0.017708    0.018071    0.018907    0.019127    0.021009    0.021665
     0.021726    0.021758    0.022348    0.022496    0.022566    0.022767
     0.022834    0.022943    0.023136    0.023180    0.023271    0.023833
     0.026027    0.031721    0.032155    0.037406    0.037824    0.039211
     0.040824    0.044543    0.044589    0.045801    0.049478    0.053751
     0.053790    0.055311    0.055392    0.056989    0.057356    0.067744
     0.068999    0.071761    0.077944    0.079625    0.081318    0.083092
     0.084044    0.091147    0.098456    0.101617    0.112839    0.130781
     0.155065    0.159979    0.159991    0.159995    0.159996    0.159996
     0.159997    0.160000    0.160000    0.160000    0.160000    0.160000
     0.160000    0.160000    0.160000    0.160000    0.160000    0.160000
     0.160000    0.160000    0.160000    0.160000    0.160000    0.160000
     0.160000    0.160000    0.167178    0.178621    0.179665    0.186954
     0.211174    0.219988    0.220984    0.225905    0.226616    0.234815
     0.244254    0.244731    0.247877    0.248366    0.249722    0.279783
     0.288623    0.290770    0.292483    0.304056    0.315788    0.322452
     0.329818    0.330405    0.331979    0.336610    0.336646    0.336747
     0.336924    0.337247    0.337985    0.338982    0.339020    0.339142
     0.340267    0.340325    0.340391    0.340643    0.340680    0.341243
     0.341708    0.342909    0.343533    0.344783    0.346033    0.346344
     0.346497    0.349292    0.351346    0.354727    0.371647    0.375341
     0.387668    0.409187    0.410981    0.428714    0.431008    0.438333
     0.448381    0.450444    0.455976    0.463045    0.465964    0.472262

 Minimum Search - Taking Simple RFO Step
 Searching for Lamda that Minimizes Along All modes
 Value Taken    Lamda =  -0.03034391
 Calculated Step too Large.  Step scaled by  0.509761
 Step Taken.  Stepsize is  0.300000

                             Maximum     Tolerance    Cnvgd?
         Gradient           0.018363      0.000300      NO
         Displacement       0.136555      0.001200      NO
         Energy change     *********      0.000001      NO


 New Cartesian Coordinates Obtained by Inverse Iteration

 Displacement from previous Coordinates is:  1.481635
 ----------------------------------------------------------------
             Standard Nuclear Orientation (Angstroms)
    I     Atom           X                Y                Z
 ----------------------------------------------------------------
    1      C      -1.2290897730     1.1386421843    -1.6621597366
    2      C      -0.2587603595     0.5926855622    -0.8263077639
    3      C      -2.4196242348     1.5882298571    -1.0890145575
    4      H      -1.0740362910     1.2276717950    -2.7331200057
    5      C      -2.6004218169     1.5030196836     0.2995413010
    6      H      -3.1981792030     2.0165362122    -1.7162889761
    7      C      -1.6136807633     0.9676775946     1.1212130010
    8      H      -3.5249883797     1.8728911897     0.7418601710
    9      C      -0.4036609778     0.4730520227     0.5809863389
   10      H      -1.7633024832     0.9225153452     2.1977344263
   11      O       1.0325063251     0.1797681293    -1.3268534978
   12      C       1.1010204914    -0.3347690544    -2.7032044055
   13      H       0.3222506728    -1.0946286969    -2.8319326534
   14      H       2.0936557271    -0.7828465601    -2.8143307510
   15      H       0.9712224341     0.5005796720    -3.3990076978
   16      N       0.6879323733    -0.0168964438     1.3147383545
   17      C       0.6105185203    -0.3133681131     2.7185186113
   18      C       1.5824420313     0.3159415777     3.5526399897
   19      C      -0.2950069942    -1.2573160680     3.2667056215
   20      C       1.5344146800     0.1034241206     4.9327292170
   21      C      -0.3019372077    -1.4371340374     4.6620605449
   22      C       0.5788170074    -0.7500507440     5.4903859170
   23      H      -1.0077435575    -2.1411340872     5.0993328261
   24      H       0.5478851434    -0.8977775770     6.5678459370
   25      H       2.2430524533     0.5901903082     5.5974338353
   26      C       2.6924535171     1.1645967704     2.9300584288
   27      C       2.1385059704     2.4213121244     2.2022284072
   28      H       1.9172350055     2.3579103226     1.1043441059
   29      H       2.8279650214     3.2744071131     2.2924351155
   30      H       1.1938059401     2.7410492212     2.6658093800
   31      C       3.7713789838     1.6176598005     3.9238977529
   32      H       4.5651514282     2.1809853323     3.4194024183
   33      H       4.2443503358     0.7746421122     4.4408890991
   34      H       3.3459044745     2.2805265793     4.6881512949
   35      H       3.2985522757     0.4407768934     2.2333449764
   36      C      -2.6806278844    -2.0272264760     2.8010714222
   37      C      -1.1923232378    -2.1649018852     2.4257875060
   38      H      -3.0282119154    -0.9907291635     2.7681235877
   39      H      -2.8827758265    -2.4052035016     3.8102163817
   40      H      -3.3086225631    -2.6046225949     2.1119480586
   41      C      -0.7420762119    -3.6310092409     2.5750174228
   42      H      -1.0777973530    -1.9073099014     1.3545322092
   43      H      -0.8953445763    -4.0077886711     3.5932048773
   44      H       0.3212381955    -3.7523954698     2.3359058421
   45      H      -1.3134601987    -4.2821082281     1.9014182514
   46      Zr      2.5534198904     0.3322941723     0.2658833608
   47      C       3.9555139031    -1.3902798573     0.3962290966
   48      H       4.9555127696    -1.0700449257     0.0673562557
   49      H       3.5920245497    -2.1718087299    -0.2908375083
   50      H       4.0618809040    -1.8617012981     1.3797541802
   51      C       3.7629426849     1.9527996929    -0.6908022917
   52      H       3.3406692963     2.8920713563    -1.0504872282
   53      H       4.0673189475     1.3483536928    -1.5744092186
   54      H       4.6751298557     2.1929408876    -0.1282792313
 ----------------------------------------------------------------
 Nuclear Repulsion Energy =  2291.3871913814 hartrees
 There are       91 alpha and       91 beta electrons
 Applying Cartesian multipole field
    Component          Value
    ---------          -----
     (2,0,0)        1.00000E-11
     (0,2,0)        2.00000E-11
     (0,0,2)       -3.00000E-12
 Nucleus-field energy     =     0.0000000486 hartrees
 Requested basis set is LANL2DZ
 There are 137 shells and 289 basis functions
 A cutoff of  1.0D-09 yielded   5743 shell pairs
 There are     30241 function pairs (     30793 Cartesian)
JobNum = 11
 Requested basis set is LANL2DZ
 Compound shells will be simplified
 There are 183 shells and 289 basis functions
 A cutoff of  1.0D-09 yielded  10956 shell pairs
 There are     30152 function pairs (     30704 Cartesian)
 Smallest overlap matrix eigenvalue = 4.62E-04
 Guess MOs from SCF MO coefficient file
 Reading MOs from coefficient file
 Reading MOs from coefficient file
 A restricted hybrid HF-DFT SCF calculation will be
 performed using Pulay DIIS extrapolation
 Exchange:     0.2000 Hartree-Fock + 0.0800 Slater + 0.7200 Becke88
 Correlation:  0.8100 LYP + 0.1900 VWN1RPA
 Using SG-1 standard quadrature grid
 SCF converges when DIIS error is below 1.0E-06
Geometry optimization detected.  Setting ReadMinima to 0
Setting SaveMinima to 0
 CPU 0.00 s  wall 0.00 s
 ---------------------------------------
  Cycle       Energy         DIIS Error
 ---------------------------------------
    1    -994.4465739714      1.42E-03
 CPU 0.00 s  wall 0.00 s
    2    -994.4386813128      1.44E-04
 CPU 0.00 s  wall 0.00 s
    3    -994.4385743358      1.97E-04
 CPU 0.00 s  wall 0.00 s
    4    -994.4390297707      4.11E-05
 CPU 0.00 s  wall 0.00 s
    5    -994.4390418492      2.80E-05
 CPU 0.00 s  wall 0.00 s
    6    -994.4390505471      8.87E-06
 CPU 0.00 s  wall 0.00 s
    7    -994.4390513796      3.09E-06
 CPU 0.00 s  wall 0.00 s
    8    -994.4390510598      7.64E-07 Convergence criterion met
 ---------------------------------------
 SCF time:  CPU 185.12 s  wall 184.58 s
 SCF   energy in the final basis set = -994.4390510598
 Total energy in the final basis set = -994.4390510598
 No wavefunction analysis requested
 Calculating analytic gradient of the SCF energy
JobNum = 111
 Gradient of Coulomb and Exchange Energy
                1               2               3               4               5               6
    1  5.590722999981 -5.478818014540 13.173781318319 -0.049352883444 14.642120672739  5.705923150268
    2 -4.061027488293  1.720761648397 -6.636321824551 -1.170734677731 -7.286231825582 -3.136139676819
    3 16.121167589864 11.410479582061  8.700659144293  8.061644153338 -0.745552493534  4.392011416267
                7               8               9              10              11              12
    1 10.218593036821  6.988902948296 -1.007824491301  2.743528235168 -5.234798581895 -1.169050986464
    2 -3.843074601060 -2.961000577212  0.443044342970 -0.552170789845  2.022993091890  1.544703933243
    3 -7.198612483132 -2.767533923663 -4.107202460989 -8.162715121509 11.885926456495  7.584141426193
               13              14              15              16              17              18
    1  4.573221730265 -6.292298824525  0.488088179234 -4.781666930040  0.533363188636-12.273950065545
    2  5.473261748264  3.360093058039 -4.780212809674  3.105518572549 -0.636350620232 -8.232539678174
    3  2.349169443247  2.251173349994  5.608097895841  3.133459051384  1.094599391271  3.244757640719
               19              20              21              22              23              24
    1  9.255207626247 -5.473320874328  6.347652682964  0.439877732154  4.951824521869  0.250474808885
    2  9.683332595258 -2.994345257041  7.824671036664  1.589095442606  5.078815654990  1.053746779964
    3  0.988969492815-16.064125239345-11.834285007347-16.813789050465 -4.176536681671 -7.793729156600
               25              26              27              28              29              30
    1 -4.786463477154 -3.536876658638 -6.574232632326  0.935810448602 -3.846935815859  5.931125340223
    2 -3.185585913276 -9.005148715570 -3.220632363270 -1.940017414744 -6.187734513758 -3.892933059596
    3 -5.810879238809 -6.152934148840 -4.208556661349  5.700398385976 -0.449060242959 -3.125145543519
               31              32              33              34              35              36
    1 -6.317070836662 -5.401431298054 -3.944181720511  1.128393512163 -3.460678577145  5.727842331992
    2 -2.922801866584 -3.503458625230  4.222537462194 -4.403166243874  3.060289135047  4.611754027952
    3 -2.926918514538  1.720272712158 -3.674849537605 -5.180941831722 -0.155716144612 -0.823928264013
               37              38              39              40              41              42
    1  7.392894338395  3.583835361464  2.581111835175  4.520707609942  2.854291371018  0.081256020544
    2  9.997658245539 -5.162337970981  2.382620571629  3.440287582893  6.789446918222  0.002076399421
    3 -5.044623529326 -0.413598710622 -5.545018774138  3.392500056379  0.245251651513  6.746493276908
               43              44              45              46              47              48
    1  0.927654979861 -5.778730627080  2.984139524025-13.103703964778 -6.542103097461 -6.108761369639
    2  3.598917013841  2.266721726716  4.662435464899  0.231376737013  3.500555826220 -0.959217931307
    3 -5.432764058054  1.258032360736  3.431970749985  8.249519403730  3.161138593821  1.886427747581
               49              50              51              52              53              54
    1  0.833099902777 -1.799361967415 -5.970008370921  1.374462363822 -2.103372353932 -5.724913352188
    2  5.153222283340  3.680757767778 -3.773135822312 -6.222903472019  2.229257487986 -2.060728816786
    3  3.746201236420 -5.445814885375  2.719789515362  2.734121019807  4.400633988200 -2.164175028617
 CPU 0.00 s  wall 0.00 s
 Gradient of SCF Energy
                1               2               3               4               5               6
    1 -0.002912118278  0.005033930147  0.005321686684 -0.000133789479  0.005100083916 -0.002565961173
    2  0.001789704117 -0.002974128072 -0.002134162634  0.000497129534 -0.001814258332  0.001383741374
    3  0.000999670138 -0.005346937003 -0.000496820269 -0.001994787456  0.001533256089 -0.001215325683
                7               8               9              10              11              12
    1 -0.002619921979 -0.003259440098  0.004771454398 -0.000826994818 -0.005024087117 -0.002572484695
    2  0.002605483111  0.001370271819 -0.006731779165 -0.000306395855  0.001588176105  0.003318380331
    3 -0.005681325438  0.001003646766  0.002747100020  0.003279934819 -0.005210133265  0.008037481525
               13              14              15              16              17              18
    1 -0.001848220806  0.002713263970 -0.001352360776 -0.013512310926 -0.005211025788  0.002732109326
    2 -0.002612281908 -0.001718547653  0.003628300580 -0.004459038934  0.003011334013  0.005084685159
    3 -0.000066897717  0.001138835078 -0.000861962422  0.010984905201  0.000093663406 -0.000323787018
               19              20              21              22              23              24
    1  0.000853505073 -0.003112983396  0.001791467183  0.000942607919 -0.002362453957 -0.000014171567
    2 -0.001062001075 -0.000056075071 -0.000069975801 -0.000171224717 -0.001511779786 -0.000387977017
    3  0.000946648174 -0.003707841761 -0.000717852663 -0.003566547396  0.001236427534  0.002483883206
               25              26              27              28              29              30
    1  0.001285020994 -0.003209391192  0.002768109030 -0.000762682317 -0.000633197012 -0.002305700904
    2  0.001492123981  0.004716764144 -0.014207163003 -0.001863212791  0.005749974256  0.005307549971
    3  0.002749292693  0.004376375674  0.007527697899 -0.011321378185  0.002314132864  0.002061152131
               31              32              33              34              35              36
    1 -0.009265008789  0.002009521855  0.001777990108  0.001114722938  0.004989821584  0.006270773563
    2  0.000068267616  0.001229939168 -0.000210882993  0.000744643232 -0.013546241369  0.000068194732
    3 -0.006163102684  0.001452214199  0.001356364614  0.002246314625 -0.013895830278  0.000409540966
               37              38              39              40              41              42
    1 -0.000320747926 -0.000805559120 -0.001710994803 -0.001126586748 -0.002669328225  0.000724704973
    2 -0.003333882102 -0.000913707907  0.000391755899  0.000463195277  0.007460969728 -0.000671885822
    3  0.007932347494  0.000780300039 -0.000042547148  0.000069031073  0.001246623634 -0.008172013941
               43              44              45              46              47              48
    1  0.000239547652  0.000198412635  0.000293395510  0.011632960580  0.001224744353 -0.000505211087
    2 -0.001826576759 -0.000479736364 -0.001211980978  0.016597467168 -0.007496407562  0.000631841841
    3 -0.000250782008  0.000311216301 -0.000005926708 -0.004366301595 -0.001516499188  0.000844855309
               49              50              51              52              53              54
    1  0.001201071090  0.000987930458  0.006787463929  0.002463225681 -0.003398186797 -0.001188605727
    2  0.000087914891  0.000175940312  0.007102695553 -0.001774762997 -0.004424614047  0.001404236830
    3  0.002036267309 -0.001504568484  0.004651717372  0.000929841224  0.001091881748 -0.002443450813
 Max gradient component =       1.660E-02
 RMS gradient           =       4.259E-03
 Gradient time:  CPU 83.71 s  wall 85.94 s
 Geometry Optimization Parameters
   NAtoms,    NIC,     NZ,  NCons,   NDum,   NFix, NCnnct, MaxDiis
       54     567       0       0       0       0       0       0

 Cartesian Hessian Update
 Hessian Updated using BFGS Update


** GEOMETRY OPTIMIZATION IN DELOCALIZED INTERNAL COORDINATES **
   Searching for a Minimum

   Optimization Cycle:   2

                       Coordinates (Angstroms)
     ATOM                X               Y               Z
      1  C        -1.2290897730    1.1386421843   -1.6621597366
      2  C        -0.2587603595    0.5926855622   -0.8263077639
      3  C        -2.4196242348    1.5882298571   -1.0890145575
      4  H        -1.0740362910    1.2276717950   -2.7331200057
      5  C        -2.6004218169    1.5030196836    0.2995413010
      6  H        -3.1981792030    2.0165362122   -1.7162889761
      7  C        -1.6136807633    0.9676775946    1.1212130010
      8  H        -3.5249883797    1.8728911897    0.7418601710
      9  C        -0.4036609778    0.4730520227    0.5809863389
     10  H        -1.7633024832    0.9225153452    2.1977344263
     11  O         1.0325063251    0.1797681293   -1.3268534978
     12  C         1.1010204914   -0.3347690544   -2.7032044055
     13  H         0.3222506728   -1.0946286969   -2.8319326534
     14  H         2.0936557271   -0.7828465601   -2.8143307510
     15  H         0.9712224341    0.5005796720   -3.3990076978
     16  N         0.6879323733   -0.0168964438    1.3147383545
     17  C         0.6105185203   -0.3133681131    2.7185186113
     18  C         1.5824420313    0.3159415777    3.5526399897
     19  C        -0.2950069942   -1.2573160680    3.2667056215
     20  C         1.5344146800    0.1034241206    4.9327292170
     21  C        -0.3019372077   -1.4371340374    4.6620605449
     22  C         0.5788170074   -0.7500507440    5.4903859170
     23  H        -1.0077435575   -2.1411340872    5.0993328261
     24  H         0.5478851434   -0.8977775770    6.5678459370
     25  H         2.2430524533    0.5901903082    5.5974338353
     26  C         2.6924535171    1.1645967704    2.9300584288
     27  C         2.1385059704    2.4213121244    2.2022284072
     28  H         1.9172350055    2.3579103226    1.1043441059
     29  H         2.8279650214    3.2744071131    2.2924351155
     30  H         1.1938059401    2.7410492212    2.6658093800
     31  C         3.7713789838    1.6176598005    3.9238977529
     32  H         4.5651514282    2.1809853323    3.4194024183
     33  H         4.2443503358    0.7746421122    4.4408890991
     34  H         3.3459044745    2.2805265793    4.6881512949
     35  H         3.2985522757    0.4407768934    2.2333449764
     36  C        -2.6806278844   -2.0272264760    2.8010714222
     37  C        -1.1923232378   -2.1649018852    2.4257875060
     38  H        -3.0282119154   -0.9907291635    2.7681235877
     39  H        -2.8827758265   -2.4052035016    3.8102163817
     40  H        -3.3086225631   -2.6046225949    2.1119480586
     41  C        -0.7420762119   -3.6310092409    2.5750174228
     42  H        -1.0777973530   -1.9073099014    1.3545322092
     43  H        -0.8953445763   -4.0077886711    3.5932048773
     44  H         0.3212381955   -3.7523954698    2.3359058421
     45  H        -1.3134601987   -4.2821082281    1.9014182514
     46  Zr        2.5534198904    0.3322941723    0.2658833608
     47  C         3.9555139031   -1.3902798573    0.3962290966
     48  H         4.9555127696   -1.0700449257    0.0673562557
     49  H         3.5920245497   -2.1718087299   -0.2908375083
     50  H         4.0618809040   -1.8617012981    1.3797541802
     51  C         3.7629426849    1.9527996929   -0.6908022917
     52  H         3.3406692963    2.8920713563   -1.0504872282
     53  H         4.0673189475    1.3483536928   -1.5744092186
     54  H         4.6751298557    2.1929408876   -0.1282792313
   Point Group: c1    Number of degrees of freedom:   156


   Energy is   -994.439051060

 Hessian Updated using BFGS Update

139 Hessian modes will be used to form the next step
  Hessian Eigenvalues:
     0.002000    0.002000    0.003945    0.004396    0.004709    0.004960
     0.006100    0.006854    0.007537    0.007916    0.008191    0.010209
     0.012199    0.013282    0.014557    0.015695    0.016426    0.016634
     0.017712    0.018675    0.018957    0.020328    0.021228    0.021637
     0.021728    0.022343    0.022480    0.022553    0.022747    0.022820
     0.022906    0.023131    0.023180    0.023271    0.023808    0.025991
     0.028291    0.031658    0.031767    0.037402    0.037793    0.039218
     0.040508    0.043341    0.044589    0.045820    0.049484    0.053753
     0.053790    0.055304    0.055441    0.057303    0.057976    0.065882
     0.068379    0.071501    0.077943    0.079799    0.081235    0.082757
     0.086635    0.087972    0.098368    0.100707    0.112312    0.122271
     0.144799    0.156954    0.159979    0.159991    0.159995    0.159997
     0.159997    0.160000    0.162748    0.169141    0.175063    0.184114
     0.186776    0.209022    0.219981    0.221627    0.225786    0.227933
     0.234954    0.237979    0.244381    0.247311    0.248550    0.274021
     0.279345    0.287758    0.292009    0.293429    0.308777    0.314296
     0.322446    0.326474    0.330105    0.333316    0.336597    0.336683
     0.336894    0.337239    0.337444    0.338121    0.338899    0.339002
     0.339137    0.340266    0.340317    0.340384    0.340637    0.340689
     0.341223    0.342535    0.343488    0.344346    0.345503    0.346130
     0.346454    0.348246    0.349599    0.351140    0.363055    0.370242
     0.377611    0.388435    0.409182    0.422862    0.428474    0.436735
     0.447591    0.449122    0.454732    0.461705    0.465880    0.470613
     0.475521

 Minimum Search - Taking Simple RFO Step
 Searching for Lamda that Minimizes Along All modes
 Value Taken    Lamda =  -0.01757971
 Calculated Step too Large.  Step scaled by  0.561409
 Step Taken.  Stepsize is  0.300000

                             Maximum     Tolerance    Cnvgd?
         Gradient           0.016139      0.000300      NO
         Displacement       0.077679      0.001200      NO
         Energy change     -0.010572      0.000001      NO


 New Cartesian Coordinates Obtained by Inverse Iteration

 Displacement from previous Coordinates is:  1.178217
 ----------------------------------------------------------------
             Standard Nuclear Orientation (Angstroms)
    I     Atom           X                Y                Z
 ----------------------------------------------------------------
    1      C      -1.2606883877     1.0629040774    -1.6172458538
    2      C      -0.2648436543     0.5574589114    -0.7901850970
    3      C      -2.4558674264     1.4949327276    -1.0317528135
    4      H      -1.1257960556     1.1277855930    -2.6890681546
    5      C      -2.6090008373     1.4278821115     0.3601921907
    6      H      -3.2506980626     1.8863233621    -1.6535789300
    7      C      -1.5883756212     0.9326745062     1.1715661368
    8      H      -3.5290228610     1.7750578551     0.8147435552
    9      C      -0.3785854182     0.4673048413     0.6124081761
   10      H      -1.7126767083     0.8954414212     2.2446383963
   11      O       1.0312820160     0.1407623893    -1.2946475710
   12      C       1.1211350801    -0.4006577456    -2.6751548853
   13      H       0.3513918498    -1.1622640850    -2.8004295914
   14      H       2.1114361985    -0.8427982462    -2.7781803907
   15      H       0.9989432697     0.4077387581    -3.3940138675
   16      N       0.7382796266    -0.0034569129     1.3262239652
   17      C       0.6633200224    -0.3047245918     2.7295865878
   18      C       1.6222222656     0.3117342240     3.5834566262
   19      C      -0.2685222937    -1.2358447859     3.2525413977
   20      C       1.5660330882     0.0779777259     4.9611286746
   21      C      -0.2919041778    -1.4308484273     4.6466885444
   22      C       0.5923824886    -0.7712793015     5.4961917141
   23      H      -1.0098207478    -2.1256468600     5.0655185231
   24      H       0.5470431401    -0.9335952680     6.5666630392
   25      H       2.2719098353     0.5487799110     5.6310325435
   26      C       2.7199899263     1.1802793203     2.9588372860
   27      C       2.1476560019     2.4351050078     2.2207237014
   28      H       1.9103733569     2.3649878073     1.1418990720
   29      H       2.8402748994     3.2779752389     2.2879420604
   30      H       1.2106362572     2.7412905901     2.6905278452
   31      C       3.8217679273     1.6383291096     3.9342983909
   32      H       4.5966349473     2.1944516048     3.3986380870
   33      H       4.2977442039     0.7950201565     4.4424332051
   34      H       3.4005174868     2.3050997746     4.6933953265
   35      H       3.3103569615     0.4743580506     2.2815197160
   36      C      -2.6835787658    -1.9251199397     2.6986451122
   37      C      -1.1818864219    -2.0958392570     2.3697105186
   38      H      -2.9991181905    -0.8781545947     2.6811567304
   39      H      -2.9182364476    -2.3277098754     3.6908210028
   40      H      -3.2974920705    -2.4697706272     1.9719870756
   41      C      -0.7821178698    -3.5878608489     2.4821382753
   42      H      -1.0292406617    -1.8056022672     1.3270952708
   43      H      -0.9773004013    -3.9783360968     3.4872496276
   44      H       0.2819578303    -3.7371705908     2.2647520574
   45      H      -1.3618464311    -4.1920639036     1.7743339890
   46      Zr      2.5416172048     0.3233848403     0.2912552894
   47      C       3.9373843718    -1.3560293324     0.4227309297
   48      H       4.9343818420    -1.0400201360     0.0779787220
   49      H       3.5618800442    -2.1410902880    -0.2585289283
   50      H       4.0489001482    -1.8148191873     1.4142121608
   51      C       3.6977291749     1.9417432839    -0.7022035986
   52      H       3.2383161513     2.8719241829    -1.0541104888
   53      H       4.0318614145     1.3763596350    -1.5996105736
   54      H       4.6062604807     2.1977361514    -0.1344507787
 ----------------------------------------------------------------
 Nuclear Repulsion Energy =  2300.8807505910 hartrees
 There are       91 alpha and       91 beta electrons
 Applying Cartesian multipole field
    Component          Value
    ---------          -----
     (2,0,0)        1.00000E-11
     (0,2,0)        2.00000E-11
     (0,0,2)       -3.00000E-12
 Nucleus-field energy     =     0.0000000477 hartrees
 Requested basis set is LANL2DZ
 There are 137 shells and 289 basis functions
 A cutoff of  1.0D-09 yielded   5786 shell pairs
 There are     30478 function pairs (     31030 Cartesian)
JobNum = 11
 Requested basis set is LANL2DZ
 Compound shells will be simplified
 There are 183 shells and 289 basis functions
 A cutoff of  1.0D-09 yielded  11043 shell pairs
 There are     30383 function pairs (     30935 Cartesian)
 Smallest overlap matrix eigenvalue = 4.56E-04
 Guess MOs from SCF MO coefficient file
 Reading MOs from coefficient file
 Reading MOs from coefficient file
 A restricted hybrid HF-DFT SCF calculation will be
 performed using Pulay DIIS extrapolation
 Exchange:     0.2000 Hartree-Fock + 0.0800 Slater + 0.7200 Becke88
 Correlation:  0.8100 LYP + 0.1900 VWN1RPA
 Using SG-1 standard quadrature grid
 SCF converges when DIIS error is below 1.0E-06
Geometry optimization detected.  Setting ReadMinima to 0
Setting SaveMinima to 0
 CPU 0.00 s  wall 0.00 s
 ---------------------------------------
  Cycle       Energy         DIIS Error
 ---------------------------------------
    1    -994.4735457033      1.18E-03
 CPU 0.00 s  wall 0.00 s
    2    -994.4441708263      1.31E-04
 CPU 0.00 s  wall 0.00 s
    3    -994.4441863355      1.49E-04
 CPU 0.00 s  wall 0.00 s
    4    -994.4444264006      4.20E-05
 CPU 0.00 s  wall 0.00 s
    5    -994.4444452767      1.88E-05
 CPU 0.00 s  wall 0.00 s
    6    -994.4444487660      5.88E-06
 CPU 0.00 s  wall 0.00 s
    7    -994.4444488865      3.45E-06
 CPU 0.00 s  wall 0.00 s
    8    -994.4444496876      9.67E-07 Convergence criterion met
 ---------------------------------------
 SCF time:  CPU 236.79 s  wall 241.91 s
 SCF   energy in the final basis set = -994.4444496876
 Total energy in the final basis set = -994.4444496876
 No wavefunction analysis requested
 Calculating analytic gradient of the SCF energy
JobNum = 111
 Gradient of Coulomb and Exchange Energy
                1               2               3               4               5               6
    1  6.111363820848 -5.449416802750 13.417121799002  0.085505212895 14.786752231912  5.871041062018
    2 -3.920666122128  1.407532247768 -6.431698555356 -0.962037076870 -7.059741820442 -2.908992851689
    3 16.107968106020 11.885906078249  8.718631219763  8.114225352574 -0.807839126728  4.412425952224
                7               8               9              10              11              12
    1 10.313161641068  7.055467122520 -1.855217145541  2.573918008506 -5.104178261961 -1.226228358052
    2 -4.109768872519 -2.842932718684 -0.041201450398 -0.580543697007  2.070588836321  1.529425684330
    3 -7.343783083818 -2.890572728742 -4.332950412045 -8.273405225543 11.832850754315  7.440326658391
               13              14              15              16              17              18
    1  4.521423294149 -6.313687912572  0.396789706997 -5.304237156623 -0.423684765405-12.420434076300
    2  5.505498900089  3.346209430536 -4.524733302515  2.765851175321 -0.876877274478 -7.981481334036
    3  2.374196377308  2.347189612653  5.851042726786  3.468629363729  1.174718241714  2.469043761679
               19              20              21              22              23              24
    1  9.156205329495 -5.589891638892  6.424854166909  0.559305984285  5.060944719222  0.346787238308
    2  9.662269694454 -2.603086261282  7.625984867888  1.986046238578  5.071854866626  1.159524096397
    3  1.335515788052-16.417261939520-12.048897218337-16.765812906544 -4.064396692954 -7.787468181935
               25              26              27              28              29              30
    1 -4.813680163884 -3.341151259526 -6.576750858518  1.082168131721 -3.990461589428  5.989808699608
    2 -3.054734879376 -9.519546762521 -3.731191907531 -1.951242056432 -6.099164025468 -3.681053100088
    3 -5.865052915465 -6.650747698764 -4.221502251237  5.686467590036 -0.186633874276 -3.101530955189
               31              32              33              34              35              36
    1 -6.693013520086 -5.284844881770 -3.955752086466  1.234213468720 -3.493498582422  6.079302194517
    2 -2.789274211029 -3.465272592932  4.269497632810 -4.437258760134  3.079148797559  4.573381851975
    3 -3.104992731983  2.021072402109 -3.582298729288 -5.071632964436 -0.165386676478 -0.821552008953
               37              38              39              40              41              42
    1  7.858550004664  3.405472560987  2.674940799238  4.500272692741  2.815091603910 -0.182907839487
    2 10.243533879050 -5.319739893431  2.518773721936  3.329435086369  7.046006513427 -0.394698899781
    3 -5.322730805106 -0.485484227899 -5.478038702746  3.667333793606  0.329274633927  6.615506159712
               43              44              45              46              47              48
    1  1.215213743181 -5.792982234451  3.096820716406-12.823742936356 -6.621417440923 -6.190429572848
    2  3.590938693826  2.418875946593  4.435443975953  0.330465870341  3.330468006218 -0.947236852421
    3 -5.396513653419  1.176995790113  3.682038655679  8.128420392677  3.219271951165  2.010622744603
               49              50              51              52              53              54
    1  0.908280878858 -1.812605897228 -5.931414759676  1.664764309219 -2.349165060457 -5.664746340282
    2  5.167168251427  3.564865270214 -3.618083763860 -6.101656904724  1.978207495851 -2.053081084728
    3  3.778244847455 -5.582594778227  2.659094924787  2.766526729733  4.618143822666 -2.122603942105
 CPU 0.00 s  wall 0.00 s
 Gradient of SCF Energy
                1               2               3               4               5               6
    1 -0.000690869930  0.000609865813 -0.000231114712 -0.000455386471 -0.000327749148  0.000141653378
    2  0.001283109702 -0.001221590535  0.000524503082  0.000082725983 -0.000034552461 -0.000156919606
    3  0.000407460433  0.001700407946 -0.001448295317  0.000721207287  0.001393827443  0.000578931860
                7               8               9              10              11              12
    1 -0.001866460717  0.000436011282  0.005420759383  0.000019098274 -0.002502983829  0.000336744259
    2 -0.000811467526 -0.000090286285 -0.005431551814 -0.000995497594  0.002629140923  0.000942144665
    3  0.000176124125 -0.000557937173 -0.001086461321 -0.001004072073  0.003605075055  0.001522479460
               13              14              15              16              17              18
    1  0.000894142155 -0.000752667000  0.000240979315  0.000183089485 -0.001228058479  0.001243639033
    2  0.000028007179 -0.000255951091 -0.001623663476 -0.004713858391  0.005134404713  0.001471537787
    3 -0.000710345727 -0.001288336402 -0.000403942552  0.001290458854 -0.001217251108  0.002055261161
               19              20              21              22              23              24
    1  0.002573573061  0.000196089256  0.000560537928  0.000002636936  0.000504666977  0.000058817776
    2  0.000874668563  0.000837702489 -0.000863035079 -0.000563326563  0.000790024357  0.000221389830
    3 -0.001025386645  0.000730455919  0.001542449243  0.000849170995 -0.000305253555 -0.000372382804
               25              26              27              28              29              30
    1 -0.001464953340 -0.000968201648 -0.000957057294  0.000032751865 -0.002328167221  0.000797089484
    2 -0.000689407491  0.000362047419 -0.006153695250  0.000149244503  0.001258140307  0.002090452749
    3  0.000108394955  0.000550804289  0.000094824867 -0.003385169505  0.000290239325 -0.001109367549
               31              32              33              34              35              36
    1 -0.001417193750  0.000315747115  0.000711618655  0.000156171951 -0.000094209953  0.001034219332
    2  0.000052131468  0.000246569103  0.000418893252 -0.000334270625 -0.006887286973  0.000565783875
    3 -0.002951624826  0.000502756473  0.000200465865 -0.000124285143 -0.004235957553 -0.001342139656
               37              38              39              40              41              42
    1 -0.001139511197 -0.000143289787 -0.000365128457 -0.000748979375 -0.000950979999  0.000064351974
    2  0.000521918764  0.000264194194  0.000068172606  0.000370496534  0.001761933070 -0.000494298494
    3 -0.000575385964  0.000110712671 -0.000136466654 -0.000084804912  0.000461756985  0.000192185552
               43              44              45              46              47              48
    1 -0.000092013151  0.000190893054  0.000263307917  0.002013605962 -0.003418418285 -0.000172406577
    2 -0.000567061887 -0.000374417700 -0.000507950627  0.010088201069 -0.000236267773  0.001197973781
    3 -0.000157578717  0.000114253302 -0.000151920246 -0.000175272377 -0.002269410488  0.000328241210
               49              50              51              52              53              54
    1  0.000012925345  0.000455222308  0.004622338180  0.000014084075 -0.002144452071  0.000353620906
    2 -0.000009951507  0.000807968562  0.001141690886 -0.000253912388 -0.003069170459  0.000154220205
    3  0.000421916344  0.000469845295  0.008052618217 -0.000910333838  0.000227059270 -0.001670002313
 Max gradient component =       1.009E-02
 RMS gradient           =       1.891E-03
 Gradient time:  CPU 107.83 s  wall 107.96 s
 Geometry Optimization Parameters
   NAtoms,    NIC,     NZ,  NCons,   NDum,   NFix, NCnnct, MaxDiis
       54     567       0       0       0       0       0       0

 Cartesian Hessian Update
 Hessian Updated using BFGS Update


** GEOMETRY OPTIMIZATION IN DELOCALIZED INTERNAL COORDINATES **
   Searching for a Minimum

   Optimization Cycle:   3

                       Coordinates (Angstroms)
     ATOM                X               Y               Z
      1  C        -1.2606883877    1.0629040774   -1.6172458538
      2  C        -0.2648436543    0.5574589114   -0.7901850970
      3  C        -2.4558674264    1.4949327276   -1.0317528135
      4  H        -1.1257960556    1.1277855930   -2.6890681546
      5  C        -2.6090008373    1.4278821115    0.3601921907
      6  H        -3.2506980626    1.8863233621   -1.6535789300
      7  C        -1.5883756212    0.9326745062    1.1715661368
      8  H        -3.5290228610    1.7750578551    0.8147435552
      9  C        -0.3785854182    0.4673048413    0.6124081761
     10  H        -1.7126767083    0.8954414212    2.2446383963
     11  O         1.0312820160    0.1407623893   -1.2946475710
     12  C         1.1211350801   -0.4006577456   -2.6751548853
     13  H         0.3513918498   -1.1622640850   -2.8004295914
     14  H         2.1114361985   -0.8427982462   -2.7781803907
     15  H         0.9989432697    0.4077387581   -3.3940138675
     16  N         0.7382796266   -0.0034569129    1.3262239652
     17  C         0.6633200224   -0.3047245918    2.7295865878
     18  C         1.6222222656    0.3117342240    3.5834566262
     19  C        -0.2685222937   -1.2358447859    3.2525413977
     20  C         1.5660330882    0.0779777259    4.9611286746
     21  C        -0.2919041778   -1.4308484273    4.6466885444
     22  C         0.5923824886   -0.7712793015    5.4961917141
     23  H        -1.0098207478   -2.1256468600    5.0655185231
     24  H         0.5470431401   -0.9335952680    6.5666630392
     25  H         2.2719098353    0.5487799110    5.6310325435
     26  C         2.7199899263    1.1802793203    2.9588372860
     27  C         2.1476560019    2.4351050078    2.2207237014
     28  H         1.9103733569    2.3649878073    1.1418990720
     29  H         2.8402748994    3.2779752389    2.2879420604
     30  H         1.2106362572    2.7412905901    2.6905278452
     31  C         3.8217679273    1.6383291096    3.9342983909
     32  H         4.5966349473    2.1944516048    3.3986380870
     33  H         4.2977442039    0.7950201565    4.4424332051
     34  H         3.4005174868    2.3050997746    4.6933953265
     35  H         3.3103569615    0.4743580506    2.2815197160
     36  C        -2.6835787658   -1.9251199397    2.6986451122
     37  C        -1.1818864219   -2.0958392570    2.3697105186
     38  H        -2.9991181905   -0.8781545947    2.6811567304
     39  H        -2.9182364476   -2.3277098754    3.6908210028
     40  H        -3.2974920705   -2.4697706272    1.9719870756
     41  C        -0.7821178698   -3.5878608489    2.4821382753
     42  H        -1.0292406617   -1.8056022672    1.3270952708
     43  H        -0.9773004013   -3.9783360968    3.4872496276
     44  H         0.2819578303   -3.7371705908    2.2647520574
     45  H        -1.3618464311   -4.1920639036    1.7743339890
     46  Zr        2.5416172048    0.3233848403    0.2912552894
     47  C         3.9373843718   -1.3560293324    0.4227309297
     48  H         4.9343818420   -1.0400201360    0.0779787220
     49  H         3.5618800442   -2.1410902880   -0.2585289283
     50  H         4.0489001482   -1.8148191873    1.4142121608
     51  C         3.6977291749    1.9417432839   -0.7022035986
     52  H         3.2383161513    2.8719241829   -1.0541104888
     53  H         4.0318614145    1.3763596350   -1.5996105736
     54  H         4.6062604807    2.1977361514   -0.1344507787
   Point Group: c1    Number of degrees of freedom:   156


   Energy is   -994.444449688

 Hessian Updated using BFGS Update

139 Hessian modes will be used to form the next step
  Hessian Eigenvalues:
     0.002000    0.002000    0.003946    0.004396    0.004711    0.004962
     0.006102    0.006865    0.007640    0.007919    0.008014    0.010190
     0.012137    0.013332    0.014451    0.015620    0.016558    0.016644
     0.017736    0.018727    0.018796    0.021110    0.021569    0.021604
     0.021924    0.022360    0.022475    0.022554    0.022770    0.022816
     0.022944    0.023137    0.023180    0.023272    0.023812    0.025932
     0.029656    0.031725    0.034443    0.037394    0.037782    0.039335
     0.041337    0.042860    0.044589    0.045822    0.050339    0.053749
     0.053790    0.055310    0.055437    0.057318    0.060164    0.066761
     0.068403    0.072468    0.077943    0.079792    0.081271    0.083780
     0.086380    0.097905    0.098977    0.102331    0.112718    0.135621
     0.140425    0.158228    0.159979    0.159991    0.159995    0.159996
     0.159997    0.161650    0.167804    0.171297    0.176198    0.185615
     0.187401    0.210751    0.219992    0.221627    0.226198    0.228166
     0.235135    0.244133    0.245447    0.248478    0.251548    0.278726
     0.287367    0.289269    0.291869    0.296022    0.309482    0.317158
     0.322428    0.329934    0.330692    0.336433    0.336669    0.336890
     0.337221    0.337275    0.337991    0.338848    0.339001    0.339124
     0.339864    0.340269    0.340316    0.340378    0.340645    0.341017
     0.342159    0.343373    0.343603    0.345233    0.346043    0.346446
     0.347956    0.349438    0.350936    0.352084    0.363256    0.377571
     0.380128    0.391824    0.409236    0.423248    0.430801    0.436635
     0.447938    0.449454    0.457485    0.461613    0.466035    0.472379
     0.486479

 Minimum Search - Taking Simple RFO Step
 Searching for Lamda that Minimizes Along All modes
 Value Taken    Lamda =  -0.00642226
 Calculated Step too Large.  Step scaled by  0.617788
 Step Taken.  Stepsize is  0.300000

                             Maximum     Tolerance    Cnvgd?
         Gradient           0.009693      0.000300      NO
         Displacement       0.074636      0.001200      NO
         Energy change     -0.005399      0.000001      NO


 New Cartesian Coordinates Obtained by Inverse Iteration

 Displacement from previous Coordinates is:  0.880641
 ----------------------------------------------------------------
             Standard Nuclear Orientation (Angstroms)
    I     Atom           X                Y                Z
 ----------------------------------------------------------------
    1      C      -1.2619184851     1.0664285090    -1.6233977965
    2      C      -0.2756233392     0.5672896951    -0.7845213146
    3      C      -2.4429710730     1.5466535326    -1.0436816480
    4      H      -1.1293982624     1.0910072686    -2.6974214672
    5      C      -2.5888714300     1.5325466420     0.3510411300
    6      H      -3.2304900720     1.9351882580    -1.6755814010
    7      C      -1.5763379929     1.0390155372     1.1758317154
    8      H      -3.4963463313     1.9169311147     0.7994189023
    9      C      -0.3858571793     0.5247327999     0.6212155868
   10      H      -1.6958448492     1.0391041356     2.2506719392
   11      O       1.0111343030     0.1024803492    -1.2798234053
   12      C       1.0940208573    -0.4629519639    -2.6525057131
   13      H       0.3065207408    -1.2074824863    -2.7654980598
   14      H       2.0765417343    -0.9242507543    -2.7388670427
   15      H       0.9919139308     0.3410499662    -3.3792053841
   16      N       0.7242027710     0.0238578236     1.3331403715
   17      C       0.6534660141    -0.2921374277     2.7347295024
   18      C       1.6109506418     0.3212744488     3.5933153502
   19      C      -0.2737396113    -1.2329778296     3.2469825103
   20      C       1.5582423173     0.0728389740     4.9677532012
   21      C      -0.2979280374    -1.4386848081     4.6385746064
   22      C       0.5843971825    -0.7825932016     5.4944322631
   23      H      -1.0092034864    -2.1445432675     5.0502185672
   24      H       0.5406420515    -0.9577400986     6.5625175303
   25      H       2.2696010329     0.5376478682     5.6364028883
   26      C       2.7138287512     1.1951243628     2.9763240572
   27      C       2.1526663906     2.4516811342     2.2280903227
   28      H       1.9085273002     2.3722746847     1.1553191744
   29      H       2.8603726401     3.2814123203     2.2847546514
   30      H       1.2198790932     2.7609703560     2.7020868002
   31      C       3.8155699886     1.6492220393     3.9590393794
   32      H       4.5963442331     2.1925009903     3.4200934629
   33      H       4.2756391728     0.8004495538     4.4712668092
   34      H       3.3946625276     2.3240628403     4.7109841748
   35      H       3.3019896026     0.4953009785     2.3125704785
   36      C      -2.6669292490    -1.9866047106     2.7008977783
   37      C      -1.1646441837    -2.0993840848     2.3508406646
   38      H      -3.0147829075    -0.9489519915     2.7051584930
   39      H      -2.8714146541    -2.4171151050     3.6880183581
   40      H      -3.2655453760    -2.5405999288     1.9692759069
   41      C      -0.7118437047    -3.5813312962     2.4229585498
   42      H      -1.0332061925    -1.7754839884     1.3176650105
   43      H      -0.8783558976    -3.9943433299     3.4239748930
   44      H       0.3526673737    -3.6882988645     2.1850411996
   45      H      -1.2854593487    -4.1859926223     1.7112936682
   46      Zr      2.5223344138     0.3026062566     0.3052862028
   47      C       3.9201368501    -1.3867709709     0.4591983830
   48      H       4.9210300285    -1.0903200754     0.1081145963
   49      H       3.5354441120    -2.1752158149    -0.2144550933
   50      H       4.0260652832    -1.8386702864     1.4547950132
   51      C       3.6536277975     1.9212594911    -0.7398233899
   52      H       3.1736680059     2.8432893783    -1.0883881963
   53      H       4.0139631545     1.3792293347    -1.6401418741
   54      H       4.5516613663     2.1971142641    -0.1622823065
 ----------------------------------------------------------------
 Nuclear Repulsion Energy =  2299.5792236238 hartrees
 There are       91 alpha and       91 beta electrons
 Applying Cartesian multipole field
    Component          Value
    ---------          -----
     (2,0,0)        1.00000E-11
     (0,2,0)        2.00000E-11
     (0,0,2)       -3.00000E-12
 Nucleus-field energy     =     0.0000000480 hartrees
 Requested basis set is LANL2DZ
 There are 137 shells and 289 basis functions
 A cutoff of  1.0D-09 yielded   5788 shell pairs
 There are     30537 function pairs (     31093 Cartesian)
JobNum = 11
 Requested basis set is LANL2DZ
 Compound shells will be simplified
 There are 183 shells and 289 basis functions
 A cutoff of  1.0D-09 yielded  11041 shell pairs
 There are     30421 function pairs (     30977 Cartesian)
 Smallest overlap matrix eigenvalue = 4.58E-04
 Guess MOs from SCF MO coefficient file
 Reading MOs from coefficient file
 Reading MOs from coefficient file
 A restricted hybrid HF-DFT SCF calculation will be
 performed using Pulay DIIS extrapolation
 Exchange:     0.2000 Hartree-Fock + 0.0800 Slater + 0.7200 Becke88
 Correlation:  0.8100 LYP + 0.1900 VWN1RPA
 Using SG-1 standard quadrature grid
 SCF converges when DIIS error is below 1.0E-06
Geometry optimization detected.  Setting ReadMinima to 0
Setting SaveMinima to 0
 CPU 0.00 s  wall 0.00 s
 ---------------------------------------
  Cycle       Energy         DIIS Error
 ---------------------------------------
    1    -994.4358623894      9.25E-04
 CPU 0.00 s  wall 0.00 s
    2    -994.4473815985      8.65E-05
 CPU 0.00 s  wall 0.00 s
    3    -994.4473406965      1.29E-04
 CPU 0.00 s  wall 0.00 s
    4    -994.4475202355      2.99E-05
 CPU 0.00 s  wall 0.00 s
    5    -994.4475271374      1.84E-05
 CPU 0.00 s  wall 0.00 s
    6    -994.4475308471      5.73E-06
 CPU 0.00 s  wall 0.00 s
    7    -994.4475312429      2.13E-06
 CPU 0.00 s  wall 0.00 s
    8    -994.4475310265      5.26E-07 Convergence criterion met
 ---------------------------------------
 SCF time:  CPU 210.63 s  wall 212.36 s
 SCF   energy in the final basis set = -994.4475310265
 Total energy in the final basis set = -994.4475310265
 No wavefunction analysis requested
 Calculating analytic gradient of the SCF energy
JobNum = 111
 Gradient of Coulomb and Exchange Energy
                1               2               3               4               5               6
    1  6.267009607285 -5.269986274913 13.266217325276  0.067337750307 14.589339965016  5.811414913002
    2 -3.565723698370  1.647693337665 -6.467598404517 -0.678419992097 -7.369464716367 -2.894927573073
    3 16.280490739397 11.706321638703  8.708153375833  8.146798103162 -0.815085182465  4.496990125175
                7               8               9              10              11              12
    1 10.362164534530  6.942410516386 -1.804264562555  2.463000435113 -5.080726369921 -1.199219766139
    2 -4.940746619449 -3.086858444256 -0.252608645907 -1.001518525508  2.510516252044  1.808709701668
    3 -7.564475900531 -2.870831866916 -4.465104709463 -8.315772456167 11.818586249679  7.553729508469
               13              14              15              16              17              18
    1  4.684293857384 -6.317216063544  0.286641914431 -4.971127195769 -0.448433112738-12.269830620120
    2  5.420453972785  3.485955568412 -4.503837951806  2.505104539089 -1.080087473512 -7.972020890093
    3  2.252390599976  2.196533313931  5.865146999974  3.310782255756  1.191086079833  2.319403696586
               19              20              21              22              23              24
    1  9.246814632935 -5.561725548522  6.600083860345  0.649398297823  5.022000662560  0.335881472003
    2  9.634313713083 -2.482156604677  7.528659002952  2.055950361755  5.154982927757  1.256400758415
    3  1.315066402001-16.527535336958-12.027053883151-16.681116447886 -4.001327543274 -7.775772667755
               25              26              27              28              29              30
    1 -4.893106156349 -3.308583558423 -6.584846601350  1.095355126731 -4.174362165065  5.971842853881
    2 -3.009999939165 -9.756962819269 -4.043343975796 -1.861316853005 -5.974956476129 -3.574359906819
    3 -5.814528501823 -6.798580876343 -4.181524375154  5.696219651435 -0.083654908416 -3.133713841292
               31              32              33              34              35              36
    1 -6.796592447919 -5.304672297047 -3.834537076693  1.271535816858 -3.491860397505  6.164817706486
    2 -2.833548185879 -3.389054725697  4.323558188219 -4.470035234724  3.075707609455  4.509270731780
    3 -3.150628138736  2.081413791549 -3.596976257738 -5.019361506851 -0.149416961039 -0.771454599652
               37              38              39              40              41              42
    1  7.741890346046  3.562925151155  2.467057157890  4.361733542863  2.741765805583 -0.038169332413
    2 10.596890137063 -5.244099806916  2.731403956527  3.401404738329  7.172875631567 -0.642451407301
    3 -5.080194733081 -0.561285670452 -5.458968477008  3.707633504111  0.374489664306  6.553586259885
               43              44              45              46              47              48
    1  1.038679769709 -5.850501345072  3.071618768984-12.880186822910 -6.696058768259 -6.208888609793
    2  3.691875925675  2.185113835383  4.422257255153  0.585168328091  3.299527560658 -0.813040682498
    3 -5.385135731353  1.317683056416  3.746834401944  8.148096722676  3.108476303604  2.042616498938
               49              50              51              52              53              54
    1  0.933716412256 -1.773894326221 -5.955675163031  1.757253084435 -2.539145190010 -5.520591514999
    2  5.127847136366  3.532086881451 -3.476940329471 -6.031035464183  1.871028697748 -2.117641402601
    3  3.698360397719 -5.588013775660  2.786074443683  2.766049341910  4.741055924048 -2.112554701527
 CPU 0.00 s  wall 0.00 s
 Gradient of SCF Energy
                1               2               3               4               5               6
    1  0.000265691229 -0.002089004546 -0.000906196373  0.000023583216 -0.000710461177  0.000670157454
    2  0.000507376814 -0.000239854985  0.000609992540 -0.000082239282  0.000334858658 -0.000330692295
    3  0.000192233320  0.002139452061 -0.001495737270  0.000507636373  0.001360690066  0.000504503924
                7               8               9              10              11              12
    1 -0.001420706232  0.000855533899  0.002589851525  0.000171496447 -0.000494798720  0.000758664299
    2  0.000295508312 -0.000400977014 -0.002239490308 -0.000204355827  0.002215899192 -0.000760580556
    3  0.000642190044 -0.000392632649 -0.001615680681 -0.001055834690  0.002347448635 -0.000354763613
               13              14              15              16              17              18
    1  0.000665800566 -0.000632453513  0.000166681428  0.002954612131 -0.001065339871  0.000586172600
    2  0.000455914378  0.000221319711 -0.001161484920 -0.005687432844  0.003431258053  0.000039549987
    3 -0.000096842319 -0.000652201340  0.000296984965  0.000466114314 -0.000778771718  0.002941943690
               19              20              21              22              23              24
    1  0.001246679210  0.000767690027 -0.000037559520 -0.000284577498  0.000540374861  0.000102845143
    2  0.000948155659  0.000883907322 -0.000762331798 -0.000337459315  0.000563219386  0.000180026710
    3 -0.000537287671  0.000571189564  0.000584819468  0.001250104155 -0.000493148915 -0.000706009394
               25              26              27              28              29              30
    1 -0.000787796626  0.001085795443 -0.001921005529  0.000250997056 -0.001618175358  0.000778586732
    2 -0.000431609737 -0.001545191205 -0.003084136104  0.000646368056  0.000146318323  0.000274508606
    3 -0.000408644595 -0.001519262146 -0.002665511852 -0.001114243825 -0.000185812626 -0.001223083673
               31              32              33              34              35              36
    1  0.001462458074 -0.000202723923  0.000018435826 -0.000181533920 -0.002736903774 -0.000308183871
    2  0.000386340195  0.000020618739  0.000243629632 -0.000370222821 -0.003381620857  0.000473214250
    3 -0.001850539490  0.000112936692 -0.000100960976 -0.000347625053  0.000399115063 -0.000399492821
               37              38              39              40              41              42
    1 -0.000297754496 -0.000217130645  0.000250477933 -0.000005098860 -0.000212294580 -0.000023027443
    2  0.000332246858  0.000205612033 -0.000297914963  0.000194633428 -0.000212443518 -0.000908676032
    3 -0.002110840843  0.000139592762  0.000061984241 -0.000268421479  0.000344785339  0.001681396038
               43              44              45              46              47              48
    1 -0.000252656086  0.000097503731  0.000147764049 -0.003073494949 -0.001649424609  0.000095310633
    2 -0.000047554202 -0.000092826475  0.000019952807  0.009221890131 -0.001164290380  0.000764947736
    3 -0.000041191552  0.000077112657 -0.000128897658  0.000772192342 -0.001486803176  0.000105939546
               49              50              51              52              53              54
    1 -0.000059400035  0.000436598005  0.004681495539  0.000023244668 -0.001137136381  0.000630336849
    2 -0.000117860359  0.000421330990  0.001998361561  0.000022398559 -0.002215673452  0.000017560649
    3  0.000207910948  0.000485901296  0.007169331747 -0.001224363220 -0.000460800879 -0.001648103129
 Max gradient component =       9.222E-03
 RMS gradient           =       1.536E-03
 Gradient time:  CPU 85.36 s  wall 85.53 s
 Geometry Optimization Parameters
   NAtoms,    NIC,     NZ,  NCons,   NDum,   NFix, NCnnct, MaxDiis
       54     567       0       0       0       0       0       0

 Cartesian Hessian Update
 Hessian Updated using BFGS Update


** GEOMETRY OPTIMIZATION IN DELOCALIZED INTERNAL COORDINATES **
   Searching for a Minimum

   Optimization Cycle:   4

                       Coordinates (Angstroms)
     ATOM                X               Y               Z
      1  C        -1.2619184851    1.0664285090   -1.6233977965
      2  C        -0.2756233392    0.5672896951   -0.7845213146
      3  C        -2.4429710730    1.5466535326   -1.0436816480
      4  H        -1.1293982624    1.0910072686   -2.6974214672
      5  C        -2.5888714300    1.5325466420    0.3510411300
      6  H        -3.2304900720    1.9351882580   -1.6755814010
      7  C        -1.5763379929    1.0390155372    1.1758317154
[...]
  C     -2.23091762      1.99608289      0.28553187
  H     -3.03323233      2.19329274     -1.71327151
  C     -1.22199679      1.46128958      1.08874334
  H     -3.00511515      2.60402837      0.73969794
  C     -0.20959096      0.66345290      0.52232787
  H     -1.20460805      1.64627361      2.15622126
  O      0.78960950     -0.41431018     -1.40169696
  C      0.48414018     -1.31175127     -2.54809981
  H     -0.45849296     -1.82054395     -2.34441284
  H      1.30754878     -2.02396630     -2.60374586
  H      0.43129204     -0.71796465     -3.46043466
  N      0.88044302      0.10276146      1.23582688
  C      0.78755565     -0.22668792      2.64250033
  C      1.60837708      0.47554555      3.56784676
  C     -0.08965262     -1.25824759      3.06724292
  C      1.46887407      0.17672717      4.93039458
  C     -0.19269355     -1.50951126      4.44435984
  C      0.56631331     -0.79462095      5.36926115
  H     -0.86625157     -2.28504712      4.79241012
  H      0.47211791     -1.00563171      6.42902397
  H      2.07338607      0.70438005      5.65803033
  C      2.60135305      1.55207826      3.12017535
  C      1.92587986      2.93996361      3.01849379
  H      1.07362826      2.92334879      2.33148486
  H      2.63956416      3.69296822      2.66570805
  H      1.56155136      3.25321248      4.00365054
  C      3.87420538      1.62168692      3.98813202
  H      4.60696076      2.28850990      3.52139206
  H      4.33495063      0.63644516      4.11490792
  H      3.65984316      2.02694636      4.98272169
  H      2.94423105      1.29384179      2.09975803
  C     -2.41110421     -1.96757644      2.27583830
  C     -0.88405511     -2.12989375      2.09223987
  H     -2.72530224     -0.93042424      2.11944448
  H     -2.72376310     -2.26542888      3.28284338
  H     -2.94990227     -2.59918029      1.56034641
  C     -0.47254670     -3.61731197      2.21923755
  H     -0.63922282     -1.81311656      1.07158560
  H     -0.73446062     -4.01861260      3.20414388
  H      0.60721107     -3.74887843      2.08297436
  H     -0.99285549     -4.22054685      1.46644485
 Zr      2.46678951     -0.11772288     -0.02459353
  C      4.03234381     -1.57535854      0.48615055
  H      5.04251564     -1.16714978      0.32622165
  H      3.94311375     -2.49491078     -0.11763037
  H      3.95018337     -1.87268809      1.54427732
  C      3.30642883      1.83521729     -0.62478689
  H      2.72173905      2.70478876     -0.29886673
  H      3.37726855      1.87114182     -1.72660644
  H      4.32952538      1.93699987     -0.22788213
  54
Step 52
  C     -1.25904604      0.98159314     -1.68913018
  C     -0.27935795      0.43267551     -0.87183382
  C     -2.25100889      1.77022207     -1.09429650
  H     -1.26979755      0.79965768     -2.75691142
  C     -2.22801084      2.00155085      0.28874959
  H     -3.03442014      2.19724447     -1.70853377
  C     -1.21808697      1.46631546      1.09043313
  H     -3.00037336      2.61110383      0.74385769
  C     -0.20800218      0.66650643      0.52279817
  H     -1.19824387      1.65241375      2.15766056
  O      0.78486363     -0.41613402     -1.40125394
  C      0.47785360     -1.31040495     -2.54959257
  H     -0.46659275     -1.81663575     -2.34791864
  H      1.29895837     -2.02524898     -2.60551486
  H      0.42790660     -0.71490156     -3.46098162
  N      0.88229759      0.10439467      1.23505866
  C      0.78948280     -0.22459108      2.64195464
  C      1.60658479      0.48071502      3.56804529
  C     -0.08499995     -1.25897514      3.06582674
  C      1.46656411      0.18125324      4.93056791
  C     -0.18848090     -1.51081314      4.44269631
  C      0.56726395     -0.79340027      5.36844412
  H     -0.85989667     -2.28849748      4.79007031
  H      0.47274775     -1.00489087      6.42808625
  H      2.06839666      0.71114942      5.65880665
  C      2.59607894      1.56106396      3.12220906
  C      1.91648948      2.94771719      3.02709429
  H      1.06779392      2.93298918      2.33539696
  H      2.62934946      3.70534420      2.68257255
  H      1.54528442      3.25362283      4.01198572
  C      3.87006484      1.63057975      3.98842669
  H      4.60101735      2.29990894      3.52241601
  H      4.33274600      0.64577448      4.11171239
  H      3.65672473      2.03265754      4.98453358
  H      2.93586420      1.30911961      2.09956115
  C     -2.40423347     -1.97103210      2.27093235
  C     -0.87673468     -2.13204859      2.08989408
  H     -2.71926919     -0.93442674      2.11251081
  H     -2.71801865     -2.26752294      3.27799225
  H     -2.94135515     -2.60430937      1.55565951
  C     -0.46397016     -3.61901030      2.21777431
  H     -0.63060673     -1.81524083      1.06951635
  H     -0.72756202     -4.02075850      3.20205226
  H      0.61621710     -3.74943717      2.08389554
  H     -0.98200113     -4.22278371      1.46384521
 Zr      2.46565765     -0.12463777     -0.02735161
  C      4.02370919     -1.59042203      0.48301455
  H      5.03663292     -1.18822543      0.32574765
  H      3.92934729     -2.50739213     -0.12405947
  H      3.93811115     -1.89078546      1.53996292
  C      3.31592196      1.82397844     -0.62600087
  H      2.73555715      2.69711469     -0.30216074
  H      3.39142726      1.85903734     -1.72751190
  H      4.33815435      1.91892265     -0.22501032
  54
Step 53
  C     -1.26133412      0.98368190     -1.68658295
  C     -0.28081123      0.43382694     -0.87092329
  C     -2.25046754      1.77486818     -1.09036680
  H     -1.27517774      0.80048808     -2.75410124
  C     -2.22417425      2.00741126      0.29238278
  H     -3.03440954      2.20267348     -1.70337880
  C     -1.21343199      1.47104511      1.09231239
  H     -2.99453336      2.61863048      0.74863479
  C     -0.20585318      0.66927472      0.52312930
  H     -1.19108813      1.65770603      2.15938659
  O      0.77991045     -0.41872776     -1.40114768
  C      0.46953583     -1.30979360     -2.55092104
  H     -0.47645300     -1.81337338     -2.34983204
  H      1.28825141     -2.02726030     -2.60831025
  H      0.42127008     -0.71260839     -3.46130878
  N      0.88484119      0.10573695      1.23396438
  C      0.79224271     -0.22320209      2.64096625
  C      1.60568472      0.48520628      3.56798558
  C     -0.07926490     -1.26068289      3.06368989
  C      1.46560537      0.18419310      4.93029562
  C     -0.18269034     -1.51386206      4.44021058
  C      0.56998891     -0.79431881      5.36688642
  H     -0.85182854     -2.29389793      4.78673267
  H      0.47555090     -1.00690979      6.42631820
  H      2.06457735      0.71622713      5.65934050
  C      2.59084276      1.57048206      3.12444417
  C      1.90595560      2.95533675      3.03567468
  H      1.05986673      2.94181467      2.34067093
  H      2.61689417      3.71774090      2.69780575
  H      1.52959362      3.25398224      4.02087375
  C      3.86554204      1.64114649      3.98934454
  H      4.59395317      2.31415716      3.52463367
  H      4.33151996      0.65737167      4.10876915
  H      3.65244530      2.03924170      4.98709755
  H      2.92796681      1.32456892      2.10004593
  C     -2.39700718     -1.97225818      2.26543998
  C     -0.86930004     -2.13419109      2.08677785
  H     -2.71143068     -0.93583763      2.10448111
  H     -2.71204972     -2.26638507      3.27281135
  H     -2.93350959     -2.60684216      1.55085714
  C     -0.45741240     -3.62123899      2.21555776
  H     -0.62141130     -1.81767267      1.06667752
  H     -0.72281435     -4.02305359      3.19931845
  H      0.62296235     -3.75209125      2.08355691
  H     -0.97436059     -4.22481904      1.46073522
 Zr      2.46454868     -0.13330355     -0.03029112
  C      4.01667720     -1.60421447      0.48296755
  H      5.03162004     -1.20513260      0.33114111
  H      3.92154691     -2.51858787     -0.12804605
  H      3.92572762     -1.90811032      1.53839840
  C      3.32424435      1.81100311     -0.62880703
  H      2.74432906      2.68704418     -0.31230947
  H      3.40837907      1.84164056     -1.72984974
  H      4.34373937      1.90397548     -0.22044010
  54
Step 54
  C     -1.26273698      0.98438949     -1.68484674
  C     -0.28150758      0.43389053     -0.87045772
  C     -2.24987465      1.77737027     -1.08765641
  H     -1.27897405      0.80026159     -2.75215182
  C     -2.22133466      2.01072384      0.29488891
  H     -3.03420309      2.20565970     -1.69983478
  C     -1.20992604      1.47368818      1.09353673
  H     -2.99039953      2.62293796      0.75196091
  C     -0.20396527      0.67072414      0.52326480
  H     -1.18592722      1.66054016      2.16053591
  O      0.77643332     -0.42187243     -1.40163778
  C      0.46250790     -1.31075612     -2.55205263
  H     -0.48439191     -1.81237865     -2.35042262
  H      1.27940047     -2.03014799     -2.61122917
  H      0.41463534     -0.71255268     -3.46178541
  N      0.88713582      0.10664133      1.23344128
  C      0.79466872     -0.22221899      2.64066362
  C      1.60583954      0.48766151      3.56863276
  C     -0.07487744     -1.26183287      3.06224898
  C      1.46593228      0.18481119      4.93061541
  C     -0.17790155     -1.51686154      4.43844490
  C      0.57295828     -0.79658343      5.36599235
  H     -0.84546630     -2.29863738      4.78406659
  H      0.47894340     -1.01063124      6.42517202
  H      2.06306676      0.71777631      5.66047328
  C      2.58806011      1.57631789      3.12701471
  C      1.89864933      2.95963328      3.04237183
  H      1.05342453      2.94608842      2.34622513
  H      2.60759673      3.72547287      2.70816860
  H      1.51981957      3.25361777      4.02804343
  C      3.86260900      1.64861422      3.99181078
  H      4.58891060      2.32506753      3.52876192
  H      4.33179040      0.66597991      4.10831703
  H      3.64876685      2.04326905      4.99077149
  H      2.92508309      1.33432933      2.10177708
  C     -2.39239276     -1.96990703      2.26158081
  C     -0.86474689     -2.13446980      2.08437258
  H     -2.70504427     -0.93315203      2.09919547
  H     -2.70843982     -2.26226560      3.26915317
  H     -2.92946293     -2.60449559      1.54741999
  C     -0.45539256     -3.62215294      2.21291124
  H     -0.61538476     -1.81806091      1.06457672
  H     -0.72183594     -4.02410213      3.19632017
  H      0.62484106     -3.75471884      2.08129739
  H     -0.97296763     -4.22459997      1.45761236
 Zr      2.46387354     -0.14020539     -0.03295232
  C      4.01455365     -1.61122387      0.48400233
  H      5.02964933     -1.21018710      0.33821461
  H      3.92380954     -2.52348035     -0.13094359
  H      3.91922623     -1.91895654      1.53786573
  C      3.32853948      1.80125416     -0.63348283
  H      2.74257648      2.67826375     -0.33123349
  H      3.42619634      1.82296595     -1.73371406
  H      4.34265618      1.90060106     -0.21362166
  54
Step 55
  C     -1.26215885      0.98732117     -1.68444650
  C     -0.28134768      0.43516974     -0.87068636
  C     -2.24796490      1.78148031     -1.08660959
  H     -1.27925476      0.80351666     -2.75179326
  C     -2.21870600      2.01411079      0.29602696
  H     -3.03190967      2.21105886     -1.69838511
  C     -1.20759435      1.47550849      1.09400353
  H     -2.98691823      2.62695746      0.75368921
  C     -0.20272029      0.67175428      0.52295308
  H     -1.18297089      1.66174756      2.16110510
  O      0.77453626     -0.42299143     -1.40267697
  C      0.45653561     -1.31191309     -2.55195242
  H     -0.49065634     -1.81198411     -2.34787862
  H      1.27227013     -2.03250098     -2.61269362
  H      0.40754863     -0.71402222     -3.46182595
  N      0.88820734      0.10656543      1.23246219
  C      0.79618991     -0.22217490      2.63980741
  C      1.60590191      0.48918494      3.56822534
  C     -0.07173574     -1.26335434      3.06089082
  C      1.46660573      0.18490615      4.92995001
  C     -0.17394161     -1.51973601      4.43688947
  C      0.57585651     -0.79878276      5.36475190
  H     -0.84012005     -2.30288910      4.78209685
  H      0.48255297     -1.01382222      6.42379912
  H      2.06246351      0.71874046      5.66022654
  C      2.58537232      1.58104227      3.12798764
  C      1.89280773      2.96303378      3.04698361
  H      1.04726521      2.94939326      2.35127695
  H      2.59995198      3.73114730      2.71421541
  H      1.51441266      3.25371161      4.03383686
  C      3.86009170      1.65441033      3.99251072
  H      4.58465890      2.33345567      3.53052747
  H      4.33167643      0.67261662      4.10665390
  H      3.64601794      2.04641961      4.99246403
  H      2.92222530      1.34097956      2.10269734
  C     -2.38933143     -1.96928883      2.25962294
  C     -0.86177552     -2.13544047      2.08267253
  H     -2.70080227     -0.93214799      2.09741545
  H     -2.70575049     -2.26155015      3.26711531
  H     -2.92699100     -2.60314966      1.54525042
  C     -0.45401158     -3.62351208      2.21109674
  H     -0.61187081     -1.81908687      1.06296342
  H     -0.72068022     -4.02530673      3.19449952
  H      0.62605604     -3.75728914      2.07922395
  H     -0.97239571     -4.22535078      1.45586869
 Zr      2.46320931     -0.14604716     -0.03445184
  C      4.01324379     -1.61624796      0.48630158
  H      5.02777412     -1.21197328      0.34502967
  H      3.92787146     -2.52787229     -0.13030143
  H      3.91471572     -1.92556712      1.53938021
  C      3.33114415      1.79353807     -0.63622471
  H      2.74099121      2.67084521     -0.34302246
  H      3.43650392      1.80964084     -1.73592570
  H      4.34194999      1.89784522     -0.20989733
  54
Step 56
  C     -1.26170147      0.98927635     -1.68472084
  C     -0.28136500      0.43627380     -0.87099887
  C     -2.24704336      1.78397830     -1.08681600
  H     -1.27884016      0.80565632     -2.75209653
  C     -2.21780856      2.01622900      0.29587963
  H     -3.03064322      2.21420122     -1.69857915
  C     -1.20706422      1.47691945      1.09385401
  H     -2.98575792      2.62935284      0.75361382
  C     -0.20251249      0.67278889      0.52275426
  H     -1.18246591      1.66297648      2.16099308
  O      0.77364733     -0.42314074     -1.40337086
  C      0.45362902     -1.31279141     -2.55161554
  H     -0.49385555     -1.81172388     -2.34617293
  H      1.26861161     -2.03421152     -2.61260641
  H      0.40434263     -0.71559855     -3.46191947
  N      0.88802202      0.10691347      1.23218964
  C      0.79645144     -0.22153486      2.63975667
  C      1.60552464      0.49033564      3.56839793
  C     -0.07054447     -1.26359007      3.06061234
  C      1.46647817      0.18538628      4.92999922
  C     -0.17238661     -1.52069948      4.43651282
  C      0.57680461     -0.79938405      5.36454955
  H     -0.83778653     -2.30461501      4.78146972
  H      0.48387869     -1.01489650      6.42353545
  H      2.06177638      0.71953594      5.66049754
  C      2.58396987      1.58334438      3.12868240
  C      1.89007582      2.96482143      3.05022752
  H      1.04407231      2.95119675      2.35517278
  H      2.59637350      3.73414044      2.71846034
  H      1.51237527      3.25367209      4.03787154
  C      3.85891120      1.65670433      3.99314081
  H      4.58282918      2.33681000      3.53168242
  H      4.33131116      0.67514951      4.10604321
  H      3.64488687      2.04744205      4.99360072
  H      2.92173191      1.34409213      2.10343705
  C     -2.38796381     -1.97001895      2.25949311
  C     -0.86036738     -2.13555331      2.08210108
  H     -2.69963380     -0.93265493      2.09914634
  H     -2.70415010     -2.26418063      3.26649653
  H     -2.92557253     -2.60274985      1.54407110
  C     -0.45211971     -3.62356338      2.20961814
  H     -0.61089717     -1.81853104      1.06249812
  H     -0.71827153     -4.02582817      3.19296026
  H      0.62792379     -3.75706109      2.07720851
  H     -0.97069020     -4.22522028      1.45436892
 Zr      2.46247469     -0.14910284     -0.03492618
  C      4.01222040     -1.61934907      0.48648719
  H      5.02591810     -1.21220261      0.34675312
  H      3.93030857     -2.53079600     -0.13072252
  H      3.91322467     -1.92950275      1.53926194
  C      3.33269575      1.78898506     -0.63835675
  H      2.73950779      2.66639573     -0.35156048
  H      3.44331607      1.80103731     -1.73764172
  H      4.34114819      1.89698579     -0.20759462
  54
Step 57
  C     -1.26129859      0.99241835     -1.68485757
  C     -0.28157724      0.43832043     -0.87119770
  C     -2.24599250      1.78781966     -1.08678319
  H     -1.27845742      0.80907700     -2.75228335
  C     -2.21660049      2.01961241      0.29597290
  H     -3.02919692      2.21890864     -1.69844248
  C     -1.20630561      1.47929049      1.09386023
  H     -2.98405805      2.63323419      0.75387125
  C     -0.20238321      0.67450424      0.52260590
  H     -1.18153855      1.66524506      2.16101080
  O      0.77252926     -0.42220723     -1.40380826
  C      0.45105904     -1.31199558     -2.55162767
  H     -0.49695858     -1.80968860     -2.34565499
  H      1.26519145     -2.03437982     -2.61267299
  H      0.40216184     -0.71502064     -3.46208862
  N      0.88754356      0.10732040      1.23163227
  C      0.79652593     -0.22086241      2.63931906
  C      1.60442931      0.49235795      3.56795315
  C     -0.06916750     -1.26407270      3.06019805
  C      1.46567110      0.18716883      4.92955406
  C     -0.17065142     -1.52140583      4.43605189
  C      0.57751921     -0.79896027      5.36409079
  H     -0.83494685     -2.30625565      4.78101529
  H      0.48487012     -1.01454177      6.42309324
  H      2.06007421      0.72227403      5.66009705
  C      2.58109967      1.58718726      3.12867770
  C      1.88584959      2.96796173      3.05386048
  H      1.03965777      2.95495814      2.35906766
  H      2.59129014      3.73876711      2.72368305
  H      1.50846877      3.25419625      4.04238271
  C      3.85681111      1.66038372      3.99235549
  H      4.57988137      2.34146651      3.53099712
  H      4.32992111      0.67898633      4.10373580
  H      3.64346025      2.04984890      4.99345369
  H      2.91834875      1.34947508      2.10316480
  C     -2.38585222     -1.97343910      2.25943849
  C     -0.85805453     -2.13683676      2.08165401
  H     -2.69879163     -0.93622998      2.10064737
  H     -2.70158426     -2.26950560      3.26601963
  H     -2.92272342     -2.60579798      1.54312925
  C     -0.44786819     -3.62435973      2.20885069
  H     -0.60931169     -1.81920426      1.06205860
  H     -0.71355444     -4.02702262      3.19215478
  H      0.63234412     -3.75651005      2.07648987
  H     -0.96566756     -4.22660251      1.45353623
 Zr      2.46157481     -0.15300378     -0.03498564
  C      4.00874480     -1.62619188      0.48583911
  H      5.02241223     -1.21879107      0.34600758
  H      3.92705185     -2.53757958     -0.13134655
  H      3.90993775     -1.93642468      1.53860115
  C      3.33631768      1.78298117     -0.63872144
  H      2.74448360      2.66157767     -0.35271165
  H      3.44764573      1.79441080     -1.73792944
  H      4.34466475      1.88923773     -0.20731965

======= END OF MOLDEN-FORMATTED INPUT FILE =======


        *************************************************************
        *                                                           *
        *  Thank you very much for using Q-Chem.  Have a nice day.  *
        *                                                           *
        *************************************************************


0 sent ACK to 0 
now end server 0 ... 
