Process 1 of 2 is on gollum418.lsa.umich.edu - thread support 0
Process 0 of 2 is on gollum418.lsa.umich.edu - thread support 0
initial socket setup ...start
initial socket setup ...done 
now start server 0 ... 
                  Welcome to Q-Chem
     A Quantum Leap Into The Future Of Chemistry

 Q-Chem begins on Wed Nov  8 15:38:18 2017  

Host: gollum418.lsa.umich.edu
0

     Scratch files written to /tmp/77729143.athena/qchem15032.0//
 Parallel job on  2  processors

Checking the input file for inconsistencies...	...done.

--------------------------------------------------------------
User input:
--------------------------------------------------------------
 $rem
 JOBTYPE OPT
 EXCHANGE B3LYP
! CORRELATION PBE
! UNRESTRICTED TRUE
 SCF_ALGORITHM diis
 SCF_MAX_CYCLES 150
 BASIS LANL2DZ
 ECP LANL2DZ
 WAVEFUNCTION_ANALYSIS FALSE
 GEOM_OPT_MAX_CYCLES 300

scf_convergence 6

 SYM_IGNORE TRUE
 SYMMETRY   FALSE

molden_format true
 $end


$molecule
1 1
  C  -0.392400   0.386400  -2.976700 
  C   0.672800   0.388500  -2.082400 
  C  -1.627300  -0.089700  -2.529700 
  H  -0.291600   0.732500  -4.004200 
  C  -1.774100  -0.558300  -1.215700 
  H  -2.483700  -0.095900  -3.206900 
  C  -0.699200  -0.563300  -0.332600 
  H  -2.748600  -0.927000  -0.881800 
  C   0.567500  -0.086900  -0.740000 
  H  -0.822400  -0.946500   0.685600 
  O   1.988400   0.857900  -2.446500 
  C   2.122000   1.521400  -3.741800 
  H   1.955900   0.765200  -4.523500 
  H   3.154300   1.905000  -3.769900 
  H   1.396000   2.347000  -3.797300 
  N   1.708300  -0.020800   0.072800 
  C   1.737300  -0.587000   1.396000 
  C   2.087800   0.286300   2.461800 
  C   1.517600  -1.962500   1.639200 
  C   1.992400  -0.187600   3.774100 
  C   1.470400  -2.403400   2.970700 
  C   1.658400  -1.519500   4.030500 
  H   1.291900  -3.460500   3.178200 
  H   1.575100  -1.873900   5.058500 
  H   2.182400   0.478400   4.618400 
  C   2.573300   1.711300   2.225200 
  C   1.396000   2.687100   2.207500 
  H   0.649500   2.441000   1.443300 
  H   1.716700   3.722600   2.037200 
  H   0.865800   2.676300   3.171500 
  C   3.617400   2.142100   3.260600 
  H   4.016400   3.141300   3.045300 
  H   4.461200   1.441600   3.308600 
  H   3.188700   2.193300   4.271600 
  H   3.142600   1.803000   1.210600 
  C   0.150900  -3.850300   0.658000 
  C   1.414800  -2.993500   0.525800 
  H  -0.759700  -3.247500   0.577000 
  H   0.107500  -4.387000   1.613900 
  H   0.109300  -4.614600  -0.128900 
  C   2.673800  -3.874500   0.538200 
  H   1.377300  -2.482400  -0.469100 
  H   2.721900  -4.511400   1.430000 
  H   3.587800  -3.270000   0.512900 
  H   2.691700  -4.549600  -0.326100 
 Zr   3.414300   1.065100  -0.719400 
  C   5.249700  -0.071900  -0.093700 
  H   5.727200  -0.650500  -0.890700 
  H   4.905400  -0.781600   0.675700 
  H   6.019700   0.570200   0.348100 
  C   3.996700   3.180700  -1.245100 
  H   3.299800   3.915100  -1.641700 
  H   4.777800   2.981700  -2.004900 
  H   4.498700   3.652300  -0.389500 
$end
--------------------------------------------------------------
 ----------------------------------------------------------------
             Standard Nuclear Orientation (Angstroms)
    I     Atom           X                Y                Z
 ----------------------------------------------------------------
    1      C      -0.3924000000     0.3864000000    -2.9767000000
    2      C       0.6728000000     0.3885000000    -2.0824000000
    3      C      -1.6273000000    -0.0897000000    -2.5297000000
    4      H      -0.2916000000     0.7325000000    -4.0042000000
    5      C      -1.7741000000    -0.5583000000    -1.2157000000
    6      H      -2.4837000000    -0.0959000000    -3.2069000000
    7      C      -0.6992000000    -0.5633000000    -0.3326000000
    8      H      -2.7486000000    -0.9270000000    -0.8818000000
    9      C       0.5675000000    -0.0869000000    -0.7400000000
   10      H      -0.8224000000    -0.9465000000     0.6856000000
   11      O       1.9884000000     0.8579000000    -2.4465000000
   12      C       2.1220000000     1.5214000000    -3.7418000000
   13      H       1.9559000000     0.7652000000    -4.5235000000
   14      H       3.1543000000     1.9050000000    -3.7699000000
   15      H       1.3960000000     2.3470000000    -3.7973000000
   16      N       1.7083000000    -0.0208000000     0.0728000000
   17      C       1.7373000000    -0.5870000000     1.3960000000
   18      C       2.0878000000     0.2863000000     2.4618000000
   19      C       1.5176000000    -1.9625000000     1.6392000000
   20      C       1.9924000000    -0.1876000000     3.7741000000
   21      C       1.4704000000    -2.4034000000     2.9707000000
   22      C       1.6584000000    -1.5195000000     4.0305000000
   23      H       1.2919000000    -3.4605000000     3.1782000000
   24      H       1.5751000000    -1.8739000000     5.0585000000
   25      H       2.1824000000     0.4784000000     4.6184000000
   26      C       2.5733000000     1.7113000000     2.2252000000
   27      C       1.3960000000     2.6871000000     2.2075000000
   28      H       0.6495000000     2.4410000000     1.4433000000
   29      H       1.7167000000     3.7226000000     2.0372000000
   30      H       0.8658000000     2.6763000000     3.1715000000
   31      C       3.6174000000     2.1421000000     3.2606000000
   32      H       4.0164000000     3.1413000000     3.0453000000
   33      H       4.4612000000     1.4416000000     3.3086000000
   34      H       3.1887000000     2.1933000000     4.2716000000
   35      H       3.1426000000     1.8030000000     1.2106000000
   36      C       0.1509000000    -3.8503000000     0.6580000000
   37      C       1.4148000000    -2.9935000000     0.5258000000
   38      H      -0.7597000000    -3.2475000000     0.5770000000
   39      H       0.1075000000    -4.3870000000     1.6139000000
   40      H       0.1093000000    -4.6146000000    -0.1289000000
   41      C       2.6738000000    -3.8745000000     0.5382000000
   42      H       1.3773000000    -2.4824000000    -0.4691000000
   43      H       2.7219000000    -4.5114000000     1.4300000000
   44      H       3.5878000000    -3.2700000000     0.5129000000
   45      H       2.6917000000    -4.5496000000    -0.3261000000
   46      Zr      3.4143000000     1.0651000000    -0.7194000000
   47      C       5.2497000000    -0.0719000000    -0.0937000000
   48      H       5.7272000000    -0.6505000000    -0.8907000000
   49      H       4.9054000000    -0.7816000000     0.6757000000
   50      H       6.0197000000     0.5702000000     0.3481000000
   51      C       3.9967000000     3.1807000000    -1.2451000000
   52      H       3.2998000000     3.9151000000    -1.6417000000
   53      H       4.7778000000     2.9817000000    -2.0049000000
   54      H       4.4987000000     3.6523000000    -0.3895000000
 ----------------------------------------------------------------
 Nuclear Repulsion Energy =  2281.5486488398 hartrees
 There are       91 alpha and       91 beta electrons
 Requested basis set is LANL2DZ
 There are 137 shells and 289 basis functions

 Total QAlloc Memory Limit   2000 MB
 Mega-Array Size        61 MB
 MEM_STATIC part        62 MB
 A cutoff of  1.0D-09 yielded   5732 shell pairs
 There are     30228 function pairs (     30781 Cartesian)
JobNum = 11
 
 -------------------------------------------------------
 OpenMP Integral Computing Module                       
 Release: version 1.0, May 2013, Q-Chem Inc. Pittsburgh 
 -------------------------------------------------------
 Integral Job Info:
 Integral job number is                      11
 Integral operator is                         1
 short-range coefficients               -999999
 long-range coefficients                -999999
 Omega coefficients                           0
 if combine SR and LR in K              -999999
 Integral screening is                        0
 Integral computing path is                   2
 max size of driver memory is            800000
 size of driver memory is                593474
 size of scratch memory is             11754392
 max col of scratch BK array               1296
 max len of scratch array in speh3          155
 max len of scratch index in speh4           18
 max int batch size is                      520
 min int batch size is                       52
 fixed nKL is                                52
 max L of basis functions is                  2
 order of int derivative is                   0
 number of shells is                        137
 number of basis is                         291
 number of cartesian basis is               291
 number of contracted shell pairs          5732
 number of primitive shell pairs          20108
 maxK2 (contraction) of shell pair           36
 max number of K2 of shell pair               1
 max number of CS2 of shell pair            860
 max number of PS2 of shell pair           3210
 mem total for path MDJ                   96294
 -------------------------------------------------------
 Requested basis set is LANL2DZ
 Compound shells will be simplified
 There are 183 shells and 289 basis functions
 A cutoff of  1.0D-09 yielded  10932 shell pairs
 There are     30120 function pairs (     30673 Cartesian)
 Smallest overlap matrix eigenvalue = 4.71E-04

  Scale SEOQF with 1.000000e-02/1.000000e-01/1.000000e-01

 Standard Electronic Orientation quadrupole field applied
 Nucleus-field energy     =    -0.0000000423 hartrees
 Guess from superposition of atomic densities
 Warning:  Energy on first SCF cycle will be non-variational
 A restricted hybrid HF-DFT SCF calculation will be
 performed using Pulay DIIS extrapolation
 Exchange:     0.2000 Hartree-Fock + 0.0800 Slater + 0.7200 Becke88
 Correlation:  0.8100 LYP + 0.1900 VWN1RPA
 Using SG-1 standard quadrature grid
 SCF converges when DIIS error is below 1.0E-06
 CPU 0.00 s  wall 0.00 s
 Inaccurate integrated density:
   Number of electrons =   182
   Numerical integral  =   182.998313160354
   Relative error      =     0.5485237145 %
 ---------------------------------------
  Cycle       Energy         DIIS Error
 ---------------------------------------
    1    -998.5207150363      5.40E-02
 CPU 0.00 s  wall 0.00 s
    2    -993.6603218091      7.76E-03
 CPU 0.00 s  wall 0.00 s
    3    -983.7699742338      2.37E-02
 CPU 0.00 s  wall 0.00 s
    4    -993.9224499354      5.99E-03
 CPU 0.00 s  wall 0.00 s
    5    -994.4217724799      1.22E-03
 CPU 0.00 s  wall 0.00 s
    6    -994.4134795637      1.50E-03
 CPU 0.00 s  wall 0.00 s
    7    -994.4366181747      3.27E-04
 CPU 0.00 s  wall 0.00 s
    8    -994.4377205358      1.43E-04
 CPU 0.00 s  wall 0.00 s
    9    -994.4379386805      5.12E-05
 CPU 0.00 s  wall 0.00 s
   10    -994.4379692054      1.39E-05
 CPU 0.00 s  wall 0.00 s
   11    -994.4379717432      5.63E-06
 CPU 0.00 s  wall 0.00 s
   12    -994.4379715531      1.63E-06
 CPU 0.00 s  wall 0.00 s
   13    -994.4379717231      6.15E-07 Convergence criterion met
 ---------------------------------------
 SCF time:  CPU 297.08 s  wall 296.00 s
 SCF   energy in the final basis set = -994.4379717231
 Total energy in the final basis set = -994.4379717231
 No wavefunction analysis requested
 Calculating analytic gradient of the SCF energy
JobNum = 111
 Gradient of Coulomb and Exchange Energy
                1               2               3               4               5               6
    1  6.472194488779 -5.395546108010 13.644581307649  0.412301365536 16.061847007665  6.226598157278
    2 -3.716137532762 -5.293434297738  0.256481559317 -2.262638721505  2.977046776699  0.075810384485
    3 16.024433225316 11.139018924255  9.581152950091  7.741665341034  0.368437926182  4.701732512845
                7               8               9              10              11              12
    1 11.012635253764  7.409045344359 -0.796383900863  2.698729198425 -6.429488872716 -1.487925474682
    2  3.866278500562  2.475194453199 -0.219492893901  3.165328046005 -2.684669324227 -2.462106984473
    3 -6.167887922062 -1.976356046380 -4.200836548361 -7.489120268232 11.324024343670  6.989471320857
               13              14              15              16              17              18
    1  0.561336726489 -6.560128796441  4.202014714712 -4.690866415724  1.118857808583 -3.465835432874
    2  4.214963077436 -2.918983416636 -5.863499770231 -1.749436071884 -0.466375150543-13.583355304132
    3  5.935331412645  1.609567692537  1.661271470827  1.294053060226  2.024662896509 -2.318567550096
               19              20              21              22              23              24
    1  1.798893543241 -1.158865436851  1.473469561491  1.673157263418  1.247098131006  0.704158463822
    2 12.348770286576 -3.012127516499 12.586660840751  5.159611854781  7.806592966379  2.590200013384
    3  4.080529838154-16.455634558568 -9.688428719097-16.002125857383 -2.545540953061 -7.473042072585
               25              26              27              28              29              30
    1 -1.140715254836 -2.355069609074 -0.308987298567  5.362582693401 -1.008548879907  4.024524613228
    2 -4.223955237074 -6.734280683628 -6.417976576593 -0.179030133650 -6.751978953612 -1.411398530571
    3 -6.992071880126 -6.547789518765 -4.696512646174  3.973721190517  0.515812960422 -5.826670595513
               31              32              33              34              35              36
    1 -2.911729725752 -3.006904662417 -5.770077018811  1.287173566660 -2.519593795949  1.870867605046
    2 -5.318860402212 -5.956177491903  3.183237729324 -1.134987047788 -2.392230958078  7.083587501460
    3 -3.539565913713  0.079124513225 -1.278271444865 -6.731139304697  0.854062215032  0.855731158325
               37              38              39              40              41              42
    1  0.058743527385  6.027156127475  1.258253238665  0.944771949512 -1.510476907342  0.117185355624
    2 13.159969087752 -1.841484346390  4.174561024943  5.157673072175  7.086446513336 -1.482417848724
    3 -2.145278467148  0.331340963671 -4.970809978337  4.103296078008  1.639897791089  6.694347508711
               43              44              45              46              47              48
    1 -1.109753127998 -5.932012901821 -0.842986007363-12.959435351572 -8.683596510117 -3.841443218766
    2  4.805354994071 -1.934389260577  4.637948151845 -6.315514477977 -0.914671662881  3.378030913162
    3 -4.518172795771  0.297394664456  4.653728391023  7.649149440020  3.042972148069  4.336262031133
               49              50              51              52              53              54
    1  0.418498381531 -5.420352982998 -4.628442149298  3.245102514999 -4.200956591264 -3.195655477730
    2  4.344378412583 -3.078070560219 -5.184014929474 -5.455346939477  0.029985345813 -3.605068480675
    3 -4.267380672504 -2.306094799513  2.469286571267  2.498919610245  3.654985879665 -3.988087517079
 CPU 0.00 s  wall 0.00 s
 Gradient of SCF Energy
                1               2               3               4               5               6
    1 -0.004250823308  0.007024543350  0.010968903480 -0.000154714882  0.008402691914 -0.005069118118
    2 -0.001451386319  0.009669406852  0.002508250417  0.001070050777  0.001425113013 -0.000165840909
    3  0.002068283197 -0.011130639545 -0.000323455843 -0.004887447535  0.004513980138 -0.002855135026
                7               8               9              10              11              12
    1 -0.005482644974 -0.006056992384  0.008499200528 -0.000820026767 -0.006029305984 -0.007596425185
    2 -0.000102809792 -0.002232941376 -0.005519650710 -0.005035978557  0.000553501221 -0.003495939019
    3 -0.008119446810  0.001799970842  0.008711467081  0.007395784439 -0.016184181022  0.012169549405
               13              14              15              16              17              18
    1 -0.001564604503  0.008402206980 -0.005057065194 -0.022079248604 -0.007542833630 -0.002524972207
    2 -0.007217116028  0.001914033797  0.004750403879 -0.015124380162 -0.004894738063  0.006545664191
    3 -0.001570911650  0.003510580488  0.001358849403  0.017364532843  0.000555903695  0.003214699532
               19              20              21              22              23              24
    1  0.002547265668 -0.000822233242  0.001051156570  0.001459007498 -0.000709739819 -0.001064769748
    2 -0.001731378780 -0.001215460375  0.003374889141  0.001973487704 -0.005543024799 -0.001668201674
    3  0.000933512110 -0.007163513998 -0.002837671920 -0.004622311710  0.001084592011  0.003808434345
               25              26              27              28              29              30
    1  0.000138560723  0.001388871501  0.009615680861 -0.001643460463 -0.001675869222 -0.004458426948
    2  0.004492018630 -0.003436367527 -0.012411181875  0.001914949847  0.000904981875  0.003301558474
    3  0.005179924651 -0.003762060070  0.006880105864  0.000442523691  0.000210333705  0.001064815368
               31              32              33              34              35              36
    1 -0.012632018146  0.001756308953  0.001657497092  0.000934681244  0.010503273858  0.008050377172
    2 -0.003801797999  0.001283894557 -0.000667705327 -0.000367515298 -0.000124220024  0.007253252225
    3 -0.004977600551  0.001947193792  0.000849961708  0.004694088639 -0.017435004041  0.002460703790
               37              38              39              40              41              42
    1  0.001423732432 -0.000335595114 -0.001258231348 -0.001003634656 -0.007101906049 -0.000632641039
    2 -0.004785689299  0.000271760396 -0.001107782403 -0.001591301776  0.006743528400  0.004985325623
    3  0.012205166695 -0.000193876511  0.000549122462  0.000347912470  0.002342349434 -0.014129712462
               43              44              45              46              47              48
    1  0.000650835197 -0.000402530626  0.000855462514  0.007857573004  0.011925615773 -0.001296406882
    2 -0.002111751795  0.000166011620 -0.001088432374  0.020407668961 -0.004969748039  0.002481706837
    3 -0.001018496350  0.000224013322  0.000788768912 -0.013617745768  0.005309036700  0.003340429025
               49              50              51              52              53              54
    1 -0.000038663602 -0.001351855915  0.004582148013  0.004652550786 -0.001504378938 -0.002187007605
    2  0.000422551847 -0.003851823296  0.011041977946 -0.001968694034 -0.001800590776  0.000027460237
    3  0.000291539764 -0.000655946775 -0.004018396368  0.003027619055  0.001242326446 -0.002384521002
 Max gradient component =       2.208E-02
 RMS gradient           =       5.987E-03
 Gradient time:  CPU 73.66 s  wall 73.58 s
 Geometry Optimization Parameters
   NAtoms,    NIC,     NZ,  NCons,   NDum,   NFix, NCnnct, MaxDiis
       54     433       0       0       0       0       0       0


** GEOMETRY OPTIMIZATION IN DELOCALIZED INTERNAL COORDINATES **
   Searching for a Minimum

   Optimization Cycle:   1

                       Coordinates (Angstroms)
     ATOM                X               Y               Z
      1  C        -0.3924000000    0.3864000000   -2.9767000000
      2  C         0.6728000000    0.3885000000   -2.0824000000
      3  C        -1.6273000000   -0.0897000000   -2.5297000000
      4  H        -0.2916000000    0.7325000000   -4.0042000000
      5  C        -1.7741000000   -0.5583000000   -1.2157000000
      6  H        -2.4837000000   -0.0959000000   -3.2069000000
      7  C        -0.6992000000   -0.5633000000   -0.3326000000
      8  H        -2.7486000000   -0.9270000000   -0.8818000000
      9  C         0.5675000000   -0.0869000000   -0.7400000000
     10  H        -0.8224000000   -0.9465000000    0.6856000000
     11  O         1.9884000000    0.8579000000   -2.4465000000
     12  C         2.1220000000    1.5214000000   -3.7418000000
     13  H         1.9559000000    0.7652000000   -4.5235000000
     14  H         3.1543000000    1.9050000000   -3.7699000000
     15  H         1.3960000000    2.3470000000   -3.7973000000
     16  N         1.7083000000   -0.0208000000    0.0728000000
     17  C         1.7373000000   -0.5870000000    1.3960000000
     18  C         2.0878000000    0.2863000000    2.4618000000
     19  C         1.5176000000   -1.9625000000    1.6392000000
     20  C         1.9924000000   -0.1876000000    3.7741000000
     21  C         1.4704000000   -2.4034000000    2.9707000000
     22  C         1.6584000000   -1.5195000000    4.0305000000
     23  H         1.2919000000   -3.4605000000    3.1782000000
     24  H         1.5751000000   -1.8739000000    5.0585000000
     25  H         2.1824000000    0.4784000000    4.6184000000
     26  C         2.5733000000    1.7113000000    2.2252000000
     27  C         1.3960000000    2.6871000000    2.2075000000
     28  H         0.6495000000    2.4410000000    1.4433000000
     29  H         1.7167000000    3.7226000000    2.0372000000
     30  H         0.8658000000    2.6763000000    3.1715000000
     31  C         3.6174000000    2.1421000000    3.2606000000
     32  H         4.0164000000    3.1413000000    3.0453000000
     33  H         4.4612000000    1.4416000000    3.3086000000
     34  H         3.1887000000    2.1933000000    4.2716000000
     35  H         3.1426000000    1.8030000000    1.2106000000
     36  C         0.1509000000   -3.8503000000    0.6580000000
     37  C         1.4148000000   -2.9935000000    0.5258000000
     38  H        -0.7597000000   -3.2475000000    0.5770000000
     39  H         0.1075000000   -4.3870000000    1.6139000000
     40  H         0.1093000000   -4.6146000000   -0.1289000000
     41  C         2.6738000000   -3.8745000000    0.5382000000
     42  H         1.3773000000   -2.4824000000   -0.4691000000
     43  H         2.7219000000   -4.5114000000    1.4300000000
     44  H         3.5878000000   -3.2700000000    0.5129000000
     45  H         2.6917000000   -4.5496000000   -0.3261000000
     46  Zr        3.4143000000    1.0651000000   -0.7194000000
     47  C         5.2497000000   -0.0719000000   -0.0937000000
     48  H         5.7272000000   -0.6505000000   -0.8907000000
     49  H         4.9054000000   -0.7816000000    0.6757000000
     50  H         6.0197000000    0.5702000000    0.3481000000
     51  C         3.9967000000    3.1807000000   -1.2451000000
     52  H         3.2998000000    3.9151000000   -1.6417000000
     53  H         4.7778000000    2.9817000000   -2.0049000000
     54  H         4.4987000000    3.6523000000   -0.3895000000
   Point Group: c1    Number of degrees of freedom:   156


   Energy is   -994.437971723


 Attempting to Generate Delocalized Internal Coordinates

156 Hessian modes will be used to form the next step
  Hessian Eigenvalues:
     0.002000    0.002000    0.002816    0.004326    0.004859    0.004913
     0.005245    0.005313    0.006412    0.007213    0.007515    0.010298
     0.014345    0.014646    0.015277    0.016376    0.017212    0.018154
     0.018874    0.021690    0.021901    0.022385    0.022479    0.022604
     0.022711    0.022780    0.022951    0.022984    0.023126    0.023252
     0.023719    0.030187    0.032807    0.039944    0.040864    0.041126
     0.043941    0.045994    0.048485    0.049425    0.052711    0.053169
     0.053873    0.054041    0.054150    0.054799    0.055184    0.055200
     0.055468    0.055925    0.056873    0.066102    0.071234    0.077296
     0.081179    0.084113    0.085611    0.095358    0.099815    0.114335
     0.131296    0.136980    0.159916    0.159991    0.159993    0.159994
     0.159999    0.160000    0.160000    0.160000    0.160000    0.160000
     0.160000    0.160000    0.160000    0.160000    0.160000    0.160000
     0.160000    0.160000    0.160000    0.160000    0.160000    0.160000
     0.160000    0.160000    0.160000    0.160000    0.160000    0.160000
     0.166051    0.167001    0.179830    0.199338    0.215228    0.219998
     0.220985    0.226128    0.229115    0.234564    0.244213    0.247736
     0.247853    0.249513    0.264172    0.287934    0.288148    0.291797
     0.292167    0.294950    0.302784    0.316520    0.328440    0.334724
     0.335028    0.335933    0.336558    0.336579    0.337563    0.338607
     0.339301    0.339348    0.339803    0.339882    0.340025    0.340236
     0.340321    0.340969    0.341160    0.341713    0.342362    0.342553
     0.342945    0.343418    0.345807    0.345870    0.346038    0.347479
     0.349401    0.351221    0.359587    0.367814    0.373555    0.380233
     0.387103    0.409614    0.412382    0.432464    0.433192    0.439333
     0.448749    0.451481    0.454894    0.461218    0.464029    0.471463

 Minimum Search - Taking Simple RFO Step
 Searching for Lamda that Minimizes Along All modes
 Value Taken    Lamda =  -0.02460270
 Calculated Step too Large.  Step scaled by  0.588722
 Step Taken.  Stepsize is  0.300000

                             Maximum     Tolerance    Cnvgd?
         Gradient           0.015661      0.000300      NO
         Displacement       0.080552      0.001200      NO
         Energy change     *********      0.000001      NO


 New Cartesian Coordinates Obtained by Inverse Iteration

 Displacement from previous Coordinates is:  1.130673
 ----------------------------------------------------------------
             Standard Nuclear Orientation (Angstroms)
    I     Atom           X                Y                Z
 ----------------------------------------------------------------
    1      C      -0.4005581568     0.3824144627    -2.9485837455
    2      C       0.6655359414     0.3762925409    -2.0573012715
    3      C      -1.6537518880    -0.0354708674    -2.4868413974
    4      H      -0.2881272501     0.6954448795    -3.9811154982
    5      C      -1.8083706207    -0.4494400345    -1.1581423976
    6      H      -2.5066013475    -0.0327018520    -3.1607651277
    7      C      -0.7251439986    -0.4593491811    -0.2801971082
    8      H      -2.7879211123    -0.7670443433    -0.8055423403
    9      C       0.5538702265    -0.0482617515    -0.7102039631
   10      H      -0.8547438273    -0.7900592425     0.7476293747
   11      O       1.9992612162     0.8031093232    -2.4218869268
   12      C       2.1789174094     1.4305137643    -3.7437950638
   13      H       2.0047801879     0.6747765607    -4.5165009434
   14      H       3.2137810721     1.7845189907    -3.7788013366
   15      H       1.4859579790     2.2729952507    -3.8379067202
   16      N       1.7125690237    -0.0054804628     0.0847827134
   17      C       1.7498002917    -0.5766931352     1.4074728527
   18      C       2.0899617744     0.2876624576     2.4865216589
   19      C       1.5333644802    -1.9595553530     1.6321274927
   20      C       2.0017737399    -0.2067205192     3.7936842726
   21      C       1.4888822248    -2.4141500002     2.9605128788
   22      C       1.6758345460    -1.5439310755     4.0321255430
   23      H       1.3181626522    -3.4701028223     3.1548604051
   24      H       1.6013936262    -1.9110954516     5.0525610330
   25      H       2.1908656683     0.4440508798     4.6427083897
   26      C       2.5475108467     1.7291152571     2.2526848215
   27      C       1.3595133901     2.6980835155     2.1835833380
   28      H       0.6285533853     2.4125895384     1.4185324829
   29      H       1.6773138761     3.7289321495     1.9839687899
   30      H       0.8300823156     2.7012685241     3.1450578019
   31      C       3.6048684908     2.2094932190     3.2596427360
   32      H       3.9809393136     3.2041471785     2.9940758555
   33      H       4.4572142299     1.5227764253     3.3202607013
   34      H       3.1819017552     2.2944509007     4.2670961532
   35      H       3.1077598504     1.7963473504     1.2504891915
   36      C       0.1941665220    -3.8709621514     0.5896629927
   37      C       1.4471990400    -2.9813314663     0.4978798997
   38      H      -0.7289079044    -3.2866593623     0.5202470261
   39      H       0.1586414317    -4.4383139192     1.5269615995
   40      H       0.1809348906    -4.6059379754    -0.2246099022
   41      C       2.7261888670    -3.8456089159     0.4852006311
   42      H       1.4064829514    -2.4483431757    -0.4698634802
   43      H       2.7818747667    -4.4989861417     1.3640973465
   44      H       3.6319490383    -3.2280460179     0.4734432939
   45      H       2.7489913109    -4.4959490705    -0.3977018295
   46      Zr      3.3889418411     1.0127073204    -0.6856814475
   47      C       5.1928649734    -0.1150105945    -0.0815093091
   48      H       5.6643804415    -0.6960066770    -0.8853315043
   49      H       4.8532445275    -0.8246061425     0.6901267218
   50      H       5.9651962673     0.5340097119     0.3533796521
   51      C       3.9573216286     3.1051942319    -1.2119455469
   52      H       3.2478678941     3.8308075397    -1.6147577129
   53      H       4.7443767738     2.9185310320    -1.9707783418
   54      H       4.4545334263     3.5812846982    -0.3529147349
 ----------------------------------------------------------------
 Nuclear Repulsion Energy =  2286.4818562663 hartrees
 There are       91 alpha and       91 beta electrons
 Applying Cartesian multipole field
    Component          Value
    ---------          -----
     (2,0,0)        1.00000E-12
     (0,2,0)        2.00000E-11
     (0,0,2)       -3.00000E-11
 Nucleus-field energy     =    -0.0000000421 hartrees
 Requested basis set is LANL2DZ
 There are 137 shells and 289 basis functions
 A cutoff of  1.0D-09 yielded   5740 shell pairs
 There are     30314 function pairs (     30867 Cartesian)
JobNum = 11
 Requested basis set is LANL2DZ
 Compound shells will be simplified
 There are 183 shells and 289 basis functions
 A cutoff of  1.0D-09 yielded  10973 shell pairs
 There are     30241 function pairs (     30794 Cartesian)
 Smallest overlap matrix eigenvalue = 4.74E-04
 Guess MOs from SCF MO coefficient file
 Reading MOs from coefficient file
 Reading MOs from coefficient file
 A restricted hybrid HF-DFT SCF calculation will be
 performed using Pulay DIIS extrapolation
 Exchange:     0.2000 Hartree-Fock + 0.0800 Slater + 0.7200 Becke88
 Correlation:  0.8100 LYP + 0.1900 VWN1RPA
 Using SG-1 standard quadrature grid
 SCF converges when DIIS error is below 1.0E-06
Geometry optimization detected.  Setting ReadMinima to 0
Setting SaveMinima to 0
 CPU 0.00 s  wall 0.00 s
 ---------------------------------------
  Cycle       Energy         DIIS Error
 ---------------------------------------
    1    -994.4639966737      1.27E-03
 CPU 0.00 s  wall 0.00 s
    2    -994.4482314861      1.46E-04
 CPU 0.00 s  wall 0.00 s
    3    -994.4480230670      2.05E-04
 CPU 0.00 s  wall 0.00 s
    4    -994.4485663689      3.86E-05
 CPU 0.00 s  wall 0.00 s
    5    -994.4485805868      1.95E-05
 CPU 0.00 s  wall 0.00 s
    6    -994.4485842300      7.92E-06
 CPU 0.00 s  wall 0.00 s
    7    -994.4485849425      3.73E-06
 CPU 0.00 s  wall 0.00 s
    8    -994.4485843184      7.25E-07 Convergence criterion met
 ---------------------------------------
 SCF time:  CPU 173.58 s  wall 172.61 s
 SCF   energy in the final basis set = -994.4485843184
 Total energy in the final basis set = -994.4485843184
 No wavefunction analysis requested
 Calculating analytic gradient of the SCF energy
JobNum = 111
 Gradient of Coulomb and Exchange Energy
                1               2               3               4               5               6
    1  6.566496455319 -5.335309103902 13.879568538244  0.339739063603 16.124930739590  6.248392317550
    2 -3.219372867430 -4.924617904953  0.101571099376 -2.071434646413  2.555999065096 -0.003451954427
    3 16.051919123571 11.712618807546  9.619143466369  7.806541627010  0.046444827018  4.710280499598
                7               8               9              10              11              12
    1 11.481612050864  7.483892379080 -0.932265260254  2.774822024933 -6.363503492577 -1.626942986438
    2  3.247017327889  2.130004638650 -0.139106329500  2.624111767162 -2.335290538035 -2.074954912759
    3 -6.361014312217 -2.124263714578 -4.534182423105 -7.736343142652 11.124276509516  6.877727668631
               13              14              15              16              17              18
    1  0.564359508616 -6.638362935931  3.938768715017 -4.912613627002  0.816232063116 -3.581176291058
    2  4.160865162559 -2.757997184640 -5.949290256052 -1.691934880073 -0.987602262025-13.147556830626
    3  6.004271801251  1.834030541147  1.995804158373  1.302206705564  2.036156743991 -2.348969128586
               19              20              21              22              23              24
    1  1.881542135913 -1.141459045003  1.576546186197  1.628196692601  1.193080470262  0.631216227708
    2 12.052570411306 -2.717304704545 12.560749456908  5.360859629873  7.837594010188  2.679332158379
    3  4.221743725412-16.667119264714 -9.678420032114-15.905838523937 -2.454121869802 -7.445987747775
               25              26              27              28              29              30
    1 -1.149142356555 -1.714275434403 -0.125320023229  5.272416090872 -1.028167362466  3.900607846721
    2 -4.088992401461 -6.956995714366 -6.927819499328  0.086807039216 -6.792505170057 -1.341882549944
    3 -7.072319202987 -7.776850402658 -4.452991430296  4.035886757552  0.713526101161 -5.830313249357
               31              32              33              34              35              36
    1 -3.246912824877 -2.874463376125 -5.825959973987  1.351817884285 -2.368452246259  1.983250188922
    2 -5.312251217166 -5.991212708627  3.079462356170 -1.356281486683 -2.301117355502  7.156687731951
    3 -3.491511258263  0.401011800588 -1.317077533884 -6.611819487332  0.802858029016  1.054742252668
               37              38              39              40              41              42
    1 -0.043459624157  6.107461045061  1.154843492503  0.788552429547 -1.618204336261  0.130843975141
    2 13.584330237766 -1.712561201066  4.320446804381  5.003243262973  7.179659995430 -1.665885297219
    3 -2.175217854773  0.335241231028 -4.849145246793  4.302880187348  1.780012860354  6.514961068585
               43              44              45              46              47              48
    1 -1.136328703410 -5.903881876392 -0.878057974314-12.960967980681 -8.604049091230 -3.824015703942
    2  4.834976693514 -1.983036833867  4.488786513652 -6.131223695934 -1.007539472225  3.435982874080
    3 -4.481274495207  0.232252796778  4.812203127473  7.372433587796  3.099058995981  4.435502866299
               49              50              51              52              53              54
    1  0.400791261182 -5.463028206137 -4.788255124598  3.367837515871 -4.286869625676 -3.216372711854
    2  4.417856056608 -3.174054872059 -5.050788453804 -5.386777666260 -0.075601000700 -3.622472425380
    3 -4.340419058730 -2.277340172573  2.442225529953  2.583680004380  3.688191749340 -4.017295598959
 CPU 0.00 s  wall 0.00 s
 Gradient of SCF Energy
                1               2               3               4               5               6
    1 -0.002935076589  0.004239935936  0.005198382047 -0.000553657799  0.004123347331 -0.002533740077
    2 -0.001185058334  0.005017299675  0.001031603152  0.000185748955  0.000549076839  0.000035140388
    3  0.001091853368 -0.004707906188 -0.000928170916 -0.001912238796  0.002618123713 -0.000996847965
                7               8               9              10              11              12
    1 -0.003957212914 -0.002832663404  0.009058960425 -0.000286569337 -0.005324980470 -0.003605443709
    2 -0.000274618111 -0.000776747335 -0.002923254702 -0.001832751125 -0.001251289766 -0.000651487951
    3 -0.004710757017  0.000549252968  0.003703659349  0.002698273550 -0.004731031068  0.007458478662
               13              14              15              16              17              18
    1 -0.000406450314  0.003490463457 -0.001772509249 -0.008931449781 -0.005626937652 -0.001065905919
    2 -0.002595292154  0.001182673254  0.002227449593 -0.008982923427 -0.001141791579  0.002849751753
    3 -0.001215121702  0.000620648739 -0.000151431796  0.010274043945 -0.000915528946  0.001517842607
               19              20              21              22              23              24
    1  0.001516850604 -0.000868931895  0.000724139530  0.000742079346  0.000110204901 -0.000691079218
    2  0.000406079722 -0.000810041005  0.001500791431  0.000786171587 -0.002137178832 -0.000707259870
    3  0.000928860803 -0.002587374236 -0.000547605341 -0.001908087279  0.000611274442  0.001639633649
               25              26              27              28              29              30
    1 -0.000861356426 -0.000550160161  0.005906550189 -0.001312819923 -0.001350812474 -0.001949942715
    2  0.000939031758 -0.001902186451 -0.006398443619  0.001128743048  0.001165667954  0.001509059761
    3  0.002237120530 -0.000003307921  0.003386795297 -0.000015458984 -0.000023802874  0.000169814143
               31              32              33              34              35              36
    1 -0.005543900151  0.001123915947  0.001184697577  0.001110419648  0.007148653997  0.003973326510
    2 -0.001213184248  0.000851766733 -0.000116022460  0.000063802059 -0.001024135771  0.003566629652
    3 -0.003707743063  0.001445338782  0.000707681736  0.001397636455 -0.010543938632  0.000986655009
               37              38              39              40              41              42
    1  0.001028700193 -0.000266429966 -0.000876460661 -0.000795129374 -0.004009488845 -0.000051638032
    2 -0.003267349856 -0.000670406219 -0.000575088926 -0.001094954606  0.003859417123  0.001900631175
    3  0.005590012031 -0.000187153251 -0.000076993118  0.000258057598  0.000945723020 -0.006677894026
               43              44              45              46              47              48
    1  0.000369327927 -0.000087508139  0.000861077102  0.001792063438  0.004076957123 -0.001048443218
    2 -0.001399576761  0.000005692489 -0.000824662571  0.014082608018 -0.001210681103  0.001347660248
    3 -0.000753013329  0.000236483433  0.000288750484 -0.008930809054  0.004124876452  0.001317530680
               49              50              51              52              53              54
    1 -0.000881633653 -0.000923578938  0.004162752969  0.002034544009 -0.000817550125 -0.001257889070
    2  0.000345926094 -0.001838735307  0.003227486457 -0.000820468702 -0.001923691821 -0.000216626261
    3  0.000146803647 -0.000158656027 -0.001753887034  0.001533702103  0.000642070571 -0.000982239126
 Max gradient component =       1.408E-02
 RMS gradient           =       3.196E-03
 Gradient time:  CPU 80.58 s  wall 80.61 s
 Geometry Optimization Parameters
   NAtoms,    NIC,     NZ,  NCons,   NDum,   NFix, NCnnct, MaxDiis
       54     433       0       0       0       0       0       0

 Cartesian Hessian Update
 Hessian Updated using BFGS Update


** GEOMETRY OPTIMIZATION IN DELOCALIZED INTERNAL COORDINATES **
   Searching for a Minimum

   Optimization Cycle:   2

                       Coordinates (Angstroms)
     ATOM                X               Y               Z
      1  C        -0.4005581568    0.3824144627   -2.9485837455
      2  C         0.6655359414    0.3762925409   -2.0573012715
      3  C        -1.6537518880   -0.0354708674   -2.4868413974
      4  H        -0.2881272501    0.6954448795   -3.9811154982
      5  C        -1.8083706207   -0.4494400345   -1.1581423976
      6  H        -2.5066013475   -0.0327018520   -3.1607651277
      7  C        -0.7251439986   -0.4593491811   -0.2801971082
      8  H        -2.7879211123   -0.7670443433   -0.8055423403
      9  C         0.5538702265   -0.0482617515   -0.7102039631
     10  H        -0.8547438273   -0.7900592425    0.7476293747
     11  O         1.9992612162    0.8031093232   -2.4218869268
     12  C         2.1789174094    1.4305137643   -3.7437950638
     13  H         2.0047801879    0.6747765607   -4.5165009434
     14  H         3.2137810721    1.7845189907   -3.7788013366
     15  H         1.4859579790    2.2729952507   -3.8379067202
     16  N         1.7125690237   -0.0054804628    0.0847827134
     17  C         1.7498002917   -0.5766931352    1.4074728527
     18  C         2.0899617744    0.2876624576    2.4865216589
     19  C         1.5333644802   -1.9595553530    1.6321274927
     20  C         2.0017737399   -0.2067205192    3.7936842726
     21  C         1.4888822248   -2.4141500002    2.9605128788
     22  C         1.6758345460   -1.5439310755    4.0321255430
     23  H         1.3181626522   -3.4701028223    3.1548604051
     24  H         1.6013936262   -1.9110954516    5.0525610330
     25  H         2.1908656683    0.4440508798    4.6427083897
     26  C         2.5475108467    1.7291152571    2.2526848215
     27  C         1.3595133901    2.6980835155    2.1835833380
     28  H         0.6285533853    2.4125895384    1.4185324829
     29  H         1.6773138761    3.7289321495    1.9839687899
     30  H         0.8300823156    2.7012685241    3.1450578019
     31  C         3.6048684908    2.2094932190    3.2596427360
     32  H         3.9809393136    3.2041471785    2.9940758555
     33  H         4.4572142299    1.5227764253    3.3202607013
     34  H         3.1819017552    2.2944509007    4.2670961532
     35  H         3.1077598504    1.7963473504    1.2504891915
     36  C         0.1941665220   -3.8709621514    0.5896629927
     37  C         1.4471990400   -2.9813314663    0.4978798997
     38  H        -0.7289079044   -3.2866593623    0.5202470261
     39  H         0.1586414317   -4.4383139192    1.5269615995
     40  H         0.1809348906   -4.6059379754   -0.2246099022
     41  C         2.7261888670   -3.8456089159    0.4852006311
     42  H         1.4064829514   -2.4483431757   -0.4698634802
     43  H         2.7818747667   -4.4989861417    1.3640973465
     44  H         3.6319490383   -3.2280460179    0.4734432939
     45  H         2.7489913109   -4.4959490705   -0.3977018295
     46  Zr        3.3889418411    1.0127073204   -0.6856814475
     47  C         5.1928649734   -0.1150105945   -0.0815093091
     48  H         5.6643804415   -0.6960066770   -0.8853315043
     49  H         4.8532445275   -0.8246061425    0.6901267218
     50  H         5.9651962673    0.5340097119    0.3533796521
     51  C         3.9573216286    3.1051942319   -1.2119455469
     52  H         3.2478678941    3.8308075397   -1.6147577129
     53  H         4.7443767738    2.9185310320   -1.9707783418
     54  H         4.4545334263    3.5812846982   -0.3529147349
   Point Group: c1    Number of degrees of freedom:   156


   Energy is   -994.448584318

 Hessian Updated using BFGS Update

137 Hessian modes will be used to form the next step
  Hessian Eigenvalues:
     0.002000    0.002000    0.002816    0.004325    0.004860    0.004918
     0.005299    0.005313    0.006429    0.007247    0.007514    0.010302
     0.014433    0.014634    0.015285    0.016470    0.017280    0.017990
     0.019019    0.021728    0.021957    0.022385    0.022476    0.022612
     0.022676    0.022788    0.022953    0.022983    0.023114    0.023253
     0.023696    0.030508    0.032803    0.039811    0.040753    0.041160
     0.045017    0.046005    0.048488    0.049417    0.052711    0.053182
     0.053781    0.053886    0.054050    0.054175    0.055183    0.055274
     0.055470    0.055930    0.056996    0.066532    0.071566    0.077291
     0.081178    0.084561    0.089924    0.092407    0.104082    0.116794
     0.131418    0.135652    0.155960    0.159916    0.159991    0.159993
     0.159994    0.159999    0.160000    0.160000    0.164348    0.166761
     0.171162    0.180661    0.198788    0.213409    0.219989    0.221040
     0.227203    0.229831    0.234626    0.243075    0.246814    0.248873
     0.249165    0.262178    0.287564    0.290028    0.292041    0.293821
     0.294694    0.306747    0.316389    0.328436    0.334581    0.334846
     0.335845    0.336446    0.336599    0.338166    0.338487    0.339235
     0.339316    0.339762    0.339877    0.340063    0.340231    0.340318
     0.340903    0.341161    0.341562    0.342328    0.342769    0.343145
     0.343588    0.345777    0.345926    0.347174    0.347662    0.349858
     0.351114    0.360182    0.368021    0.375196    0.378300    0.388435
     0.410362    0.412619    0.432897    0.433767    0.439001    0.448585
     0.451431    0.456213    0.460452    0.464068    0.471754

 Minimum Search - Taking Simple RFO Step
 Searching for Lamda that Minimizes Along All modes
 Value Taken    Lamda =  -0.01098737
 Calculated Step too Large.  Step scaled by  0.602654
 Step Taken.  Stepsize is  0.300000

                             Maximum     Tolerance    Cnvgd?
         Gradient           0.007537      0.000300      NO
         Displacement       0.114662      0.001200      NO
         Energy change     -0.010613      0.000001      NO


 New Cartesian Coordinates Obtained by Inverse Iteration

 Displacement from previous Coordinates is:  1.153422
 ----------------------------------------------------------------
             Standard Nuclear Orientation (Angstroms)
    I     Atom           X                Y                Z
 ----------------------------------------------------------------
    1      C      -0.3696783774     0.3329635435    -2.9374518971
    2      C       0.6900312793     0.3395067916    -2.0423162969
    3      C      -1.6340913122    -0.0476310781    -2.4660866180
    4      H      -0.2427431441     0.6076817549    -3.9768251635
    5      C      -1.7989922191    -0.4074255267    -1.1237821087
    6      H      -2.4786439197    -0.0574050261    -3.1449198681
    7      C      -0.7160451351    -0.4003931576    -0.2408848464
    8      H      -2.7798155673    -0.6951628802    -0.7610645771
    9      C       0.5659020748    -0.0283152278    -0.6867733297
   10      H      -0.8507513688    -0.6863379455     0.7955374143
   11      O       2.0375122975     0.7375614220    -2.4093677387
   12      C       2.2472205971     1.3048067226    -3.7619790783
   13      H       2.0692687031     0.5251240166    -4.5043712046
   14      H       3.2837156449     1.6379710420    -3.8010373822
   15      H       1.5723000942     2.1510388137    -3.8999028929
   16      N       1.7382291847     0.0090393607     0.0957107483
   17      C       1.7871335105    -0.5668684445     1.4181695329
   18      C       2.1217565460     0.2856766294     2.5083362424
   19      C       1.5528731454    -1.9503339959     1.6254210210
   20      C       2.0607824237    -0.2301505622     3.8085311831
   21      C       1.5189330368    -2.4225854685     2.9482135615
   22      C       1.7370354474    -1.5713970912     4.0305556829
   23      H       1.3338316041    -3.4759169442     3.1278414927
   24      H       1.6819524483    -1.9534402807     5.0442407235
   25      H       2.2680383885     0.4090248776     4.6588094660
   26      C       2.5356014067     1.7432896854     2.2895214576
   27      C       1.3234583128     2.6868568502     2.1967461796
   28      H       0.6146068326     2.3725959551     1.4234705642
   29      H       1.6285822847     3.7196558635     1.9933539347
   30      H       0.7906319836     2.6771291788     3.1547115856
   31      C       3.5760568556     2.2534885979     3.3030594665
   32      H       3.9238634191     3.2534964243     3.0239640182
   33      H       4.4415250858     1.5864016308     3.3706920463
   34      H       3.1366824488     2.3345324412     4.3027792395
   35      H       3.0880388429     1.8104093670     1.2994194779
   36      C       0.1466211820    -3.8091244638     0.5613414611
   37      C       1.4221983428    -2.9462232588     0.4706540480
   38      H      -0.7604868393    -3.1966852934     0.5318712669
   39      H       0.1215665884    -4.4037373713     1.4815948080
   40      H       0.1028581643    -4.5121621666    -0.2786248447
   41      C       2.6826622474    -3.8438285533     0.4050045236
   42      H       1.3726479979    -2.3853266683    -0.4696610320
   43      H       2.7411930900    -4.5122640271     1.2718847140
   44      H       3.6038599121    -3.2497360227     0.3810780042
   45      H       2.6597223347    -4.4716792865    -0.4935087021
   46      Zr      3.3941564214     0.9917574619    -0.6595183389
   47      C       5.2281219113    -0.0927613919    -0.1002170712
   48      H       5.7022530322    -0.6568560970    -0.9182852006
   49      H       4.9314345010    -0.8177287607     0.6744622068
   50      H       5.9904436116     0.5813156847     0.3200917480
   51      C       3.8777739348     3.1033723372    -1.1869916673
   52      H       3.1300225313     3.7959674332    -1.5871289223
   53      H       4.6718306925     2.9668697593    -1.9505703342
   54      H       4.3577174885     3.5996433453    -0.3270987040
 ----------------------------------------------------------------
 Nuclear Repulsion Energy =  2290.0321157231 hartrees
 There are       91 alpha and       91 beta electrons
 Applying Cartesian multipole field
    Component          Value
    ---------          -----
     (2,0,0)        1.00000E-12
     (0,2,0)        2.00000E-11
     (0,0,2)       -3.00000E-11
 Nucleus-field energy     =    -0.0000000430 hartrees
 Requested basis set is LANL2DZ
 There are 137 shells and 289 basis functions
 A cutoff of  1.0D-09 yielded   5765 shell pairs
 There are     30429 function pairs (     30982 Cartesian)
JobNum = 11
 Requested basis set is LANL2DZ
 Compound shells will be simplified
 There are 183 shells and 289 basis functions
 A cutoff of  1.0D-09 yielded  11012 shell pairs
 There are     30340 function pairs (     30893 Cartesian)
 Smallest overlap matrix eigenvalue = 4.64E-04
 Guess MOs from SCF MO coefficient file
 Reading MOs from coefficient file
 Reading MOs from coefficient file
 A restricted hybrid HF-DFT SCF calculation will be
 performed using Pulay DIIS extrapolation
 Exchange:     0.2000 Hartree-Fock + 0.0800 Slater + 0.7200 Becke88
 Correlation:  0.8100 LYP + 0.1900 VWN1RPA
 Using SG-1 standard quadrature grid
 SCF converges when DIIS error is below 1.0E-06
Geometry optimization detected.  Setting ReadMinima to 0
Setting SaveMinima to 0
 CPU 0.00 s  wall 0.00 s
 ---------------------------------------
  Cycle       Energy         DIIS Error
 ---------------------------------------
    1    -994.4531643462      1.11E-03
 CPU 0.00 s  wall 0.00 s
    2    -994.4534299152      1.28E-04
 CPU 0.00 s  wall 0.00 s
    3    -994.4533450395      1.73E-04
 CPU 0.00 s  wall 0.00 s
    4    -994.4536981558      3.79E-05
 CPU 0.00 s  wall 0.00 s
    5    -994.4537112581      2.05E-05
 CPU 0.00 s  wall 0.00 s
    6    -994.4537155394      7.99E-06
 CPU 0.00 s  wall 0.00 s
    7    -994.4537162169      3.27E-06
 CPU 0.00 s  wall 0.00 s
    8    -994.4537160596      7.26E-07 Convergence criterion met
 ---------------------------------------
 SCF time:  CPU 230.51 s  wall 230.88 s
 SCF   energy in the final basis set = -994.4537160596
 Total energy in the final basis set = -994.4537160596
 No wavefunction analysis requested
 Calculating analytic gradient of the SCF energy
JobNum = 111
 Gradient of Coulomb and Exchange Energy
                1               2               3               4               5               6
    1  6.616213567209 -5.383413383848 13.941089005591  0.202630937725 16.139143028340  6.224503668789
    2 -2.689905929843 -4.591793713584  0.076149896035 -1.824126242183  2.294243296434  0.069288645762
    3 16.248204973374 12.010997327246  9.645311138029  7.887826989381 -0.035526254871  4.790470522386
                7               8               9              10              11              12
    1 11.865022775323  7.538998865390 -0.940228977112  2.821724287168 -6.470896745529 -1.806347060265
    2  2.637454804997  1.937948436955 -0.522590414877  2.212946857936 -2.068973803405 -1.808123848488
    3 -6.618878161022 -2.221151954615 -4.736625915131 -7.917044570735 11.123000510121  6.944616206912
               13              14              15              16              17              18
    1  0.570554567390 -6.730489064726  3.809288349134 -5.033949315151  0.051124871183 -3.553101023208
    2  4.345007734382 -2.587639238816 -5.919448263123 -1.684908674206 -1.486579824032-12.962859375247
    3  5.890199584354  1.925169626726  2.300613148409  1.294617556048  2.071243179945 -2.447389960361
               19              20              21              22              23              24
    1  1.933556890272 -1.474206506743  1.691678680669  1.124702150667  1.297982483449  0.472384536655
    2 11.956356540582 -2.385922683005 12.583158392297  5.653486053357  7.856668791680  2.784535400338
    3  4.407367035393-16.851960083693 -9.734132880755-15.780403523119 -2.338157128441 -7.421268254690
               25              26              27              28              29              30
    1 -1.346277852412 -1.377491621678  0.157141866631  5.133356167978 -1.018379343266  3.858831495656
    2 -4.019895350898 -7.224648227258 -7.260646417832  0.319300716522 -6.825300464937 -1.162207377732
    3 -7.068990919355 -8.429562232160 -4.379472430316  4.117971239565  0.752759918305 -5.847819968523
               31              32              33              34              35              36
    1 -3.396936944555 -2.666167450505 -5.865422776710  1.540893373940 -2.149351603141  2.256959676359
    2 -5.332775407232 -6.050239915801  2.970154977242 -1.319332960293 -2.179891123208  7.255186284322
    3 -3.660492351780  0.549226709037 -1.326354261827 -6.534894699299  0.932968202810  1.040724886536
               37              38              39              40              41              42
    1  0.150416639931  6.064927169398  1.084238998945  0.940984575005 -1.654803082013  0.272527334711
    2 13.932759439798 -1.922280445842  4.424467437616  4.839462623829  7.281364342131 -1.960969400394
    3 -2.096552225189  0.099459720809 -4.803027033404  4.501639266735  1.839917612192  6.319242994204
               43              44              45              46              47              48
    1 -1.103935303997 -5.985665893126 -0.592934367155-13.228252122772 -8.376453425385 -3.845716471556
    2  4.890602027674 -1.845241860084  4.368287640143 -6.033318073486 -1.069590119991  3.342057051610
    3 -4.435601378244  0.338410706071  4.974565000588  6.925175516750  3.084396584238  4.481974196199
               49              50              51              52              53              54
    1  0.162374279174 -5.389169876887 -4.713389070329  3.614246512774 -4.317425304683 -3.117092168708
    2  4.504701001304 -3.321484027946 -5.151052400278 -5.228068012066 -0.371696526591 -3.724078270279
    3 -4.344729076935 -2.165299700305  2.363704009687  2.610464884180  3.708948359593 -3.985852641052
 CPU 0.00 s  wall 0.00 s
 Gradient of SCF Energy
                1               2               3               4               5               6
    1 -0.001008398423  0.001142217010  0.001174727133 -0.000160059293  0.000926989861 -0.000462068308
    2 -0.000659802002  0.001210039239  0.000396202881 -0.000115840493 -0.000163242401  0.000082560310
    3  0.000476901527 -0.000540556576 -0.001255194250 -0.000236264521  0.001624239236  0.000083621015
                7               8               9              10              11              12
    1 -0.001933728644 -0.000387259853  0.005355472440  0.000166493669 -0.003629041663 -0.000923767791
    2 -0.001140202416 -0.000077337100 -0.001435493446 -0.000707820790 -0.001179113819  0.001376934670
    3 -0.001560915233 -0.000077898657  0.000399563136  0.000201657524 -0.000533356297  0.003073762309
               13              14              15              16              17              18
    1  0.000099483039  0.000271216013 -0.000221619503  0.000844776064 -0.002506332835 -0.000304212216
    2 -0.000228257299  0.000317369122  0.000187984869 -0.005441132448  0.000945217135  0.001015507533
    3 -0.000309889903 -0.000251702027 -0.000202724367  0.003772166628 -0.001104621120  0.001012402804
               19              20              21              22              23              24
    1  0.000921272101 -0.000164831126 -0.000014797000  0.000462378970  0.000334614797 -0.000483298657
    2  0.000699937224  0.000835393892 -0.000003114209 -0.000116326799 -0.000219379362  0.000061811405
    3  0.000183853868 -0.000508210523  0.000079720818 -0.000020438196  0.000080643878  0.000180287297
               25              26              27              28              29              30
    1 -0.000618783352 -0.000810672701  0.002588146775 -0.000584179672 -0.000649947250 -0.000390410438
    2  0.000221472458 -0.000417234928 -0.001998635673  0.000301230105  0.000624223295  0.000295094932
    3  0.000594263948  0.000023066931  0.001174339715 -0.000096689625 -0.000021724280 -0.000011822703
               31              32              33              34              35              36
    1 -0.001439526917  0.000175301499  0.000372829536  0.000373048230  0.003518911510  0.001626565296
    2 -0.000708015532  0.000290422158  0.000006022759 -0.000383596834 -0.002319910359  0.001524798133
    3 -0.001406068232  0.000457940386  0.000261394174  0.000475993155 -0.004839815894  0.000182111736
               37              38              39              40              41              42
    1 -0.000431407607 -0.000334361979 -0.000329330832 -0.000328219420 -0.001115895234 -0.000429872884
    2 -0.000423959872 -0.000065897063 -0.000149434153 -0.000513908729  0.001541405294  0.000596926359
    3  0.000511931263 -0.000233056253  0.000064936227  0.000107344976  0.000451063972 -0.001298448028
               43              44              45              46              47              48
    1  0.000022276731  0.000155561439  0.000502887615 -0.003817920803  0.000829442875 -0.000309378093
    2 -0.000710564421 -0.000190166382 -0.000307001738  0.007262429481 -0.000076423892  0.000218043583
    3 -0.000367348093  0.000205247635 -0.000066678637 -0.004174526956  0.003452820344  0.000258138974
               49              50              51              52              53              54
    1 -0.001298172945 -0.000257465073  0.002931874564  0.000836488928  0.000000765175 -0.000288780753
    2  0.000449913568 -0.000621144101  0.001139972427  0.000347943277 -0.001568088978 -0.000007810835
    3 -0.000118720159  0.000151245925 -0.000587816597  0.000396805533  0.000130912656 -0.000243890392
 Max gradient component =       7.262E-03
 RMS gradient           =       1.418E-03
 Gradient time:  CPU 89.63 s  wall 89.58 s
 Geometry Optimization Parameters
   NAtoms,    NIC,     NZ,  NCons,   NDum,   NFix, NCnnct, MaxDiis
       54     433       0       0       0       0       0       0

 Cartesian Hessian Update
 Hessian Updated using BFGS Update


** GEOMETRY OPTIMIZATION IN DELOCALIZED INTERNAL COORDINATES **
   Searching for a Minimum

   Optimization Cycle:   3

                       Coordinates (Angstroms)
     ATOM                X               Y               Z
      1  C        -0.3696783774    0.3329635435   -2.9374518971
      2  C         0.6900312793    0.3395067916   -2.0423162969
      3  C        -1.6340913122   -0.0476310781   -2.4660866180
      4  H        -0.2427431441    0.6076817549   -3.9768251635
      5  C        -1.7989922191   -0.4074255267   -1.1237821087
      6  H        -2.4786439197   -0.0574050261   -3.1449198681
      7  C        -0.7160451351   -0.4003931576   -0.2408848464
      8  H        -2.7798155673   -0.6951628802   -0.7610645771
      9  C         0.5659020748   -0.0283152278   -0.6867733297
     10  H        -0.8507513688   -0.6863379455    0.7955374143
     11  O         2.0375122975    0.7375614220   -2.4093677387
     12  C         2.2472205971    1.3048067226   -3.7619790783
     13  H         2.0692687031    0.5251240166   -4.5043712046
     14  H         3.2837156449    1.6379710420   -3.8010373822
     15  H         1.5723000942    2.1510388137   -3.8999028929
     16  N         1.7382291847    0.0090393607    0.0957107483
     17  C         1.7871335105   -0.5668684445    1.4181695329
     18  C         2.1217565460    0.2856766294    2.5083362424
     19  C         1.5528731454   -1.9503339959    1.6254210210
     20  C         2.0607824237   -0.2301505622    3.8085311831
     21  C         1.5189330368   -2.4225854685    2.9482135615
     22  C         1.7370354474   -1.5713970912    4.0305556829
     23  H         1.3338316041   -3.4759169442    3.1278414927
     24  H         1.6819524483   -1.9534402807    5.0442407235
     25  H         2.2680383885    0.4090248776    4.6588094660
     26  C         2.5356014067    1.7432896854    2.2895214576
     27  C         1.3234583128    2.6868568502    2.1967461796
     28  H         0.6146068326    2.3725959551    1.4234705642
     29  H         1.6285822847    3.7196558635    1.9933539347
     30  H         0.7906319836    2.6771291788    3.1547115856
     31  C         3.5760568556    2.2534885979    3.3030594665
     32  H         3.9238634191    3.2534964243    3.0239640182
     33  H         4.4415250858    1.5864016308    3.3706920463
     34  H         3.1366824488    2.3345324412    4.3027792395
     35  H         3.0880388429    1.8104093670    1.2994194779
     36  C         0.1466211820   -3.8091244638    0.5613414611
     37  C         1.4221983428   -2.9462232588    0.4706540480
     38  H        -0.7604868393   -3.1966852934    0.5318712669
     39  H         0.1215665884   -4.4037373713    1.4815948080
     40  H         0.1028581643   -4.5121621666   -0.2786248447
     41  C         2.6826622474   -3.8438285533    0.4050045236
     42  H         1.3726479979   -2.3853266683   -0.4696610320
     43  H         2.7411930900   -4.5122640271    1.2718847140
     44  H         3.6038599121   -3.2497360227    0.3810780042
     45  H         2.6597223347   -4.4716792865   -0.4935087021
     46  Zr        3.3941564214    0.9917574619   -0.6595183389
     47  C         5.2281219113   -0.0927613919   -0.1002170712
     48  H         5.7022530322   -0.6568560970   -0.9182852006
     49  H         4.9314345010   -0.8177287607    0.6744622068
     50  H         5.9904436116    0.5813156847    0.3200917480
     51  C         3.8777739348    3.1033723372   -1.1869916673
     52  H         3.1300225313    3.7959674332   -1.5871289223
     53  H         4.6718306925    2.9668697593   -1.9505703342
     54  H         4.3577174885    3.5996433453   -0.3270987040
   Point Group: c1    Number of degrees of freedom:   156


   Energy is   -994.453716060

 Hessian Updated using BFGS Update

137 Hessian modes will be used to form the next step
  Hessian Eigenvalues:
     0.002000    0.002001    0.002809    0.004310    0.004605    0.004863
     0.004921    0.005313    0.006433    0.007174    0.007513    0.009821
     0.014411    0.014744    0.015330    0.015960    0.017160    0.018759
     0.020799    0.021706    0.021896    0.022385    0.022492    0.022597
     0.022765    0.022833    0.022975    0.023036    0.023140    0.023253
     0.023609    0.030561    0.032140    0.033530    0.040054    0.041227
     0.044658    0.045968    0.048488    0.049775    0.052688    0.053224
     0.053787    0.053933    0.054068    0.054196    0.055183    0.055299
     0.055479    0.055930    0.057243    0.066710    0.072672    0.077316
     0.081183    0.084664    0.086995    0.092544    0.103640    0.114295
     0.130855    0.145259    0.155642    0.159916    0.159991    0.159993
     0.159994    0.159999    0.160000    0.162206    0.164936    0.167454
     0.175075    0.181782    0.202246    0.215803    0.220065    0.221510
     0.227542    0.229008    0.234701    0.243336    0.247006    0.248864
     0.255963    0.266030    0.288934    0.290025    0.292042    0.293869
     0.294785    0.306850    0.319786    0.328536    0.334737    0.335427
     0.336257    0.336573    0.337508    0.338318    0.338817    0.339256
     0.339348    0.339762    0.339903    0.340065    0.340229    0.340314
     0.340926    0.341161    0.341693    0.342437    0.342898    0.343154
     0.344447    0.345886    0.346120    0.347270    0.348795    0.350711
     0.353852    0.362738    0.373869    0.377554    0.383376    0.398789
     0.411033    0.413186    0.432630    0.435169    0.440551    0.448557
     0.451706    0.456429    0.460727    0.464154    0.471753

 Minimum Search - Taking Simple RFO Step
 Searching for Lamda that Minimizes Along All modes
 Value Taken    Lamda =  -0.00839881
 Calculated Step too Large.  Step scaled by  0.462927
 Step Taken.  Stepsize is  0.300000

                             Maximum     Tolerance    Cnvgd?
         Gradient           0.005778      0.000300      NO
         Displacement       0.136384      0.001200      NO
         Energy change     -0.005132      0.000001      NO


 New Cartesian Coordinates Obtained by Inverse Iteration

 Displacement from previous Coordinates is:  1.213125
 ----------------------------------------------------------------
             Standard Nuclear Orientation (Angstroms)
    I     Atom           X                Y                Z
 ----------------------------------------------------------------
    1      C      -0.3637100265     0.3636043284    -2.9301887114
    2      C       0.6916813848     0.3444312143    -2.0321921172
    3      C      -1.6476324496     0.0611275912    -2.4501299286
    4      H      -0.2193503022     0.6014526153    -3.9755695003
    5      C      -1.8330285084    -0.2437456473    -1.0975191271
    6      H      -2.4878368170     0.0714017276    -3.1323922671
    7      C      -0.7514195694    -0.2633350078    -0.2102701776
    8      H      -2.8261602373    -0.4676584991    -0.7274645728
    9      C       0.5451554955     0.0251313584    -0.6680535511
   10      H      -0.9014301513    -0.5034974878     0.8342016973
   11      O       2.0608007920     0.6740057717    -2.4039837644
   12      C       2.3048857809     1.1729804600    -3.7815185771
   13      H       2.1014478715     0.3702861102    -4.4901147424
   14      H       3.3530130701     1.4609495611    -3.8229496650
   15      H       1.6665328164     2.0378115700    -3.9614769487
   16      N       1.7277397132     0.0187197032     0.1056126555
   17      C       1.7860357880    -0.5705888305     1.4249289944
   18      C       2.1209578048     0.2747543025     2.5208406109
   19      C       1.5632149309    -1.9598086142     1.6209366143
   20      C       2.0837875123    -0.2560646802     3.8158906085
   21      C       1.5465318220    -2.4435544898     2.9397305365
   22      C       1.7744035726    -1.6022498181     4.0279332985
   23      H       1.3708812943    -3.4990747319     3.1105543972
   24      H       1.7422086495    -1.9962279699     5.0371799060
   25      H       2.3030513741     0.3760936787     4.6668887137
   26      C       2.5056878855     1.7435878387     2.3094602440
   27      C       1.2750921661     2.6652461549     2.1934367812
   28      H       0.5869396552     2.3301243449     1.4112509650
   29      H       1.5707377369     3.6993199845     1.9869353630
   30      H       0.7324528448     2.6495875935     3.1451650782
   31      C       3.5251582865     2.2824660563     3.3319239149
   32      H       3.8560552411     3.2841863474     3.0407710632
   33      H       4.4000663691     1.6309483292     3.4156877981
   34      H       3.0682327085     2.3680748043     4.3228042872
   35      H       3.0614138713     1.8112749581     1.3298476949
   36      C       0.1813605419    -3.8425020878     0.5585289932
   37      C       1.4396432811    -2.9516540522     0.4608182058
   38      H      -0.7369918682    -3.2468619793     0.5480380460
   39      H       0.1831248654    -4.4463356724     1.4728185694
   40      H       0.1444823194    -4.5344345681    -0.2902568614
   41      C       2.7170378797    -3.8268571838     0.3740898230
   42      H       1.3705583439    -2.3865283641    -0.4707100745
   43      H       2.7996986303    -4.4919141321     1.2412624541
   44      H       3.6259775748    -3.2148814702     0.3362327155
   45      H       2.6878488126    -4.4516078874    -0.5259200868
   46      Zr      3.3943787329     0.9552132705    -0.6448460117
   47      C       5.2528517252    -0.1092969045    -0.1309168405
   48      H       5.7200145386    -0.6579419551    -0.9650356934
   49      H       4.9970822367    -0.8476696029     0.6456310083
   50      H       6.0124643050     0.5793516254     0.2736329689
   51      C       3.8162561235     3.0769963758    -1.1748783097
   52      H       3.0384601620     3.7411740982    -1.5696919800
   53      H       4.6115158325     2.9817184684    -1.9435786674
   54      H       4.2820375866     3.5879713938    -0.3146758300
 ----------------------------------------------------------------
 Nuclear Repulsion Energy =  2288.6677230611 hartrees
 There are       91 alpha and       91 beta electrons
 Applying Cartesian multipole field
    Component          Value
    ---------          -----
     (2,0,0)        1.00000E-12
     (0,2,0)        2.00000E-11
     (0,0,2)       -3.00000E-11
 Nucleus-field energy     =    -0.0000000434 hartrees
 Requested basis set is LANL2DZ
 There are 137 shells and 289 basis functions
 A cutoff of  1.0D-09 yielded   5762 shell pairs
 There are     30321 function pairs (     30878 Cartesian)
JobNum = 11
 Requested basis set is LANL2DZ
 Compound shells will be simplified
 There are 183 shells and 289 basis functions
 A cutoff of  1.0D-09 yielded  10987 shell pairs
 There are     30253 function pairs (     30810 Cartesian)
 Smallest overlap matrix eigenvalue = 4.65E-04
 Guess MOs from SCF MO coefficient file
 Reading MOs from coefficient file
 Reading MOs from coefficient file
 A restricted hybrid HF-DFT SCF calculation will be
 performed using Pulay DIIS extrapolation
 Exchange:     0.2000 Hartree-Fock + 0.0800 Slater + 0.7200 Becke88
 Correlation:  0.8100 LYP + 0.1900 VWN1RPA
 Using SG-1 standard quadrature grid
 SCF converges when DIIS error is below 1.0E-06
Geometry optimization detected.  Setting ReadMinima to 0
Setting SaveMinima to 0
 CPU 0.00 s  wall 0.00 s
 ---------------------------------------
  Cycle       Energy         DIIS Error
 ---------------------------------------
    1    -994.4411914684      1.31E-03
 CPU 0.00 s  wall 0.00 s
    2    -994.4565503500      1.09E-04
 CPU 0.00 s  wall 0.00 s
    3    -994.4564640770      1.63E-04
 CPU 0.00 s  wall 0.00 s
    4    -994.4567752849      3.94E-05
 CPU 0.00 s  wall 0.00 s
    5    -994.4567878485      2.37E-05
 CPU 0.00 s  wall 0.00 s
    6    -994.4567934126      7.86E-06
 CPU 0.00 s  wall 0.00 s
    7    -994.4567938750      2.32E-06
 CPU 0.00 s  wall 0.00 s
    8    -994.4567939460      7.03E-07 Convergence criterion met
 ---------------------------------------
 SCF time:  CPU 207.97 s  wall 208.33 s
 SCF   energy in the final basis set = -994.4567939460
 Total energy in the final basis set = -994.4567939460
 No wavefunction analysis requested
 Calculating analytic gradient of the SCF energy
JobNum = 111
 Gradient of Coulomb and Exchange Energy
                1               2               3               4               5               6
    1  6.584366969185 -5.558489358944 13.922576647184  0.065462045305 16.193837049796  6.197652898368
    2 -2.366955588996 -3.964025390330 -0.284666620449 -1.616816959171  1.623440893689 -0.084662897797
    3 16.383285495417 12.026863130665  9.575735109133  7.940484363095 -0.215139220869  4.825667007445
                7               8               9              10              11              12
    1 12.294874820966  7.604594641650 -0.740615110987  2.933867438975 -6.609376849081 -1.951292968954
    2  1.909919299096  1.487480194670 -0.400851830308  1.746204980268 -1.521177972664 -1.529526320842
    3 -6.887811256700 -2.291380572451 -4.783880214404 -8.032616303026 11.169157710002  7.048609946642
               13              14              15              16              17              18
    1  0.714035117417 -6.872360122431  3.545660530111 -4.853538902862  0.066999230068 -3.440076301283
    2  4.573124790613 -2.241513126783 -5.958043734874 -1.607637918046 -1.655915232555-12.764973951082
    3  5.720103029370  1.954633379346  2.579697454095  1.137734452939  1.996447984137 -2.378650279692
               19              20              21              22              23              24
    1  2.109773377224 -1.615922509041  1.675442155174  0.928910055651  1.238128029805  0.293750807394
    2 11.854751490371 -2.163466021812 12.610086815710  5.813007254000  7.876555837797  2.872840751567
    3  4.472897369244-16.895869880147 -9.609336943051-15.703848353342 -2.260903725283 -7.391935727142
               25              26              27              28              29              30
    1 -1.481661024853 -1.192833173568  0.318167484567  4.984121215904 -1.011019071705  3.894030312868
    2 -3.971215478070 -7.324493177472 -7.422216351293  0.471092000540 -6.846003761957 -1.074447104744
    3 -7.058089414933 -8.810146101007 -4.441988284114  4.179402594532  0.779519926007 -5.832153745929
               31              32              33              34              35              36
    1 -3.448244768600 -2.541355517252 -5.880513502280  1.704571156172 -2.056698817716  2.368868852430
    2 -5.380555076822 -6.079580984940  2.869254350351 -1.349637599257 -2.128172034427  7.235305243221
    3 -3.717011543182  0.642053154433 -1.396901845059 -6.461258054860  1.069460459448  1.117334688503
               37              38              39              40              41              42
    1  0.045826664517  6.109610639791  0.900165617992  0.880672572854 -1.672478825920  0.399229483220
    2 14.011431399520 -1.866150146900  4.470350274991  4.751326861878  7.346856813971 -1.973734309040
    3 -1.907147117030  0.032070777897 -4.777065295743  4.559438181778  1.899844813282  6.251022038998
               43              44              45              46              47              48
    1 -1.234813316594 -5.913746231724 -0.539798644050-13.701098207276 -8.121720329507 -3.817674439169
    2  4.844971820877 -1.958655626211  4.326079912373 -5.787835025916 -1.093998132329  3.252277236999
    3 -4.458817308586  0.425066958923  5.021614250892  6.596797282751  3.048730164010  4.534169117225
               49              50              51              52              53              54
    1 -0.068599248482 -5.343921842356 -4.725839730606  3.803890622420 -4.340194231869 -3.045203389896
    2  4.560087828123 -3.386184858869 -5.191374426097 -5.110661579491 -0.602162313212 -3.799134497868
    3 -4.337053414237 -2.047620917130  2.307604790081  2.621312239840  3.747346243608 -3.967478595821
 CPU 0.00 s  wall 0.00 s
 Gradient of SCF Energy
                1               2               3               4               5               6
    1 -0.000013163225 -0.000529950456 -0.000439970878  0.000100347010 -0.000349800709  0.000384771434
    2 -0.000621031189 -0.000454658000  0.000022032664 -0.000087502712 -0.000054928314  0.000133954568
    3 -0.000039464180  0.001068068927 -0.001128525816  0.000399701998  0.000858149593  0.000402052276
                7               8               9              10              11              12
    1 -0.000944478821  0.000508453789  0.000673245070 -0.000067158447 -0.001683743304  0.000138212812
    2 -0.000185436729  0.000120298526 -0.000277859804  0.000212146452 -0.000851446054  0.002297469951
    3 -0.000149936380 -0.000235051122 -0.001111155251 -0.000870744493  0.000858679344  0.000455545564
               13              14              15              16              17              18
    1  0.000271970003 -0.000872627991  0.000113096681  0.004144591832 -0.001115576586  0.000341922437
    2  0.000521743313  0.000010444110 -0.000647401302 -0.003255514938  0.001948710866 -0.000468809488
    3  0.000093588682 -0.000187356478  0.000033893879  0.000917172783  0.000082855686  0.000118384969
               19              20              21              22              23              24
    1  0.000151668311 -0.000298892487 -0.000107425301  0.000120541601  0.000351868560 -0.000208483021
    2  0.000120542466  0.000941898004 -0.000408581292 -0.000412485444  0.000322675327  0.000253910061
    3  0.000355930207  0.000277057157  0.000144912429  0.000512653848 -0.000133902935 -0.000347266292
               25              26              27              28              29              30
    1 -0.000485532118 -0.000404604200  0.000490156089 -0.000112651974 -0.000155716585  0.000226998776
    2 -0.000172211346  0.000492988634  0.000291719395 -0.000120909592  0.000098684608 -0.000196732660
    3 -0.000215355783 -0.000403488318  0.000175000587 -0.000134855475 -0.000004707536 -0.000060550599
               31              32              33              34              35              36
    1  0.000851969903 -0.000245361045 -0.000123216324  0.000070717316  0.001881700796  0.000195309998
    2  0.000159980530  0.000000519958  0.000045740165 -0.000451860157 -0.002997876882  0.000030299786
    3 -0.000246770329  0.000067238377 -0.000100825602 -0.000084226769 -0.001710129700  0.000206903723
               37              38              39              40              41              42
    1 -0.000173672257  0.000043029382 -0.000018386052  0.000065282559 -0.000046629740  0.000248523321
    2  0.000410130699 -0.000434505871  0.000038053325 -0.000116643688  0.000109087700 -0.001213375846
    3 -0.001759944660 -0.000141296354  0.000213573197  0.000070743895  0.000063425511  0.001365373112
               43              44              45              46              47              48
    1 -0.000063701222  0.000063027200  0.000179262643 -0.004353879217 -0.000078529672  0.000185335517
    2 -0.000308882021 -0.000056630619  0.000087137710  0.005110866477  0.000061288668 -0.000281800290
    3 -0.000116707740  0.000237149380 -0.000169650113 -0.002098547830  0.002730537398  0.000024123095
               49              50              51              52              53              54
    1 -0.001481741056  0.000015192812  0.001500772815  0.000466350657  0.000418287291  0.000172286085
    2  0.000324122138 -0.000064651350  0.000199090640  0.000896962166 -0.001204347079  0.000083583796
    3 -0.000236666646  0.000203381176  0.000083713770 -0.000235877534 -0.000136883097  0.000040076549
 Max gradient component =       5.111E-03
 RMS gradient           =       9.502E-04
 Gradient time:  CPU 81.31 s  wall 81.43 s
 Geometry Optimization Parameters
   NAtoms,    NIC,     NZ,  NCons,   NDum,   NFix, NCnnct, MaxDiis
       54     433       0       0       0       0       0       0

 Cartesian Hessian Update
 Hessian Updated using BFGS Update


** GEOMETRY OPTIMIZATION IN DELOCALIZED INTERNAL COORDINATES **
   Searching for a Minimum

   Optimization Cycle:   4

                       Coordinates (Angstroms)
     ATOM                X               Y               Z
      1  C        -0.3637100265    0.3636043284   -2.9301887114
      2  C         0.6916813848    0.3444312143   -2.0321921172
      3  C        -1.6476324496    0.0611275912   -2.4501299286
      4  H        -0.2193503022    0.6014526153   -3.9755695003
      5  C        -1.8330285084   -0.2437456473   -1.0975191271
      6  H        -2.4878368170    0.0714017276   -3.1323922671
      7  C        -0.7514195694   -0.2633350078   -0.2102701776
      8  H        -2.8261602373   -0.4676584991   -0.7274645728
[...]
  C     -1.68584394      0.36665421     -1.00459112
  H     -2.35215880      0.57269512     -3.05172244
  C     -0.59534945      0.24415136     -0.14109650
  H     -2.68895908      0.39016287     -0.59440355
  C      0.71511367      0.20841227     -0.65300959
  H     -0.73764382      0.16981236      0.93029122
  O      2.24410655      0.22752945     -2.52962217
  C      2.52333879     -0.40085666     -3.84824475
  H      1.97635841     -1.34249798     -3.90396779
  H      3.59901865     -0.57424943     -3.87827703
  H      2.22400981      0.28582497     -4.63988140
  N      1.89314895      0.12418825      0.13586490
  C      1.89611381     -0.52839994      1.42935672
  C      2.16648266      0.24614171      2.59121087
  C      1.64950002     -1.92402756      1.51116203
  C      2.10593934     -0.39481423      3.83735067
  C      1.59746089     -2.50988708      2.78531850
  C      1.80999754     -1.75544317      3.93803704
  H      1.39926408     -3.57272135      2.87308843
  H      1.76329459     -2.22826799      4.91311260
  H      2.29398493      0.17293314      4.74044638
  C      2.48034171      1.74332064      2.52124428
  C      1.18952165      2.59380708      2.57214531
  H      0.49646292      2.32164906      1.76905534
  H      1.42352641      3.66018728      2.47830218
  H      0.67610603      2.44260460      3.52877386
  C      3.49706157      2.21436282      3.58104100
  H      3.77336188      3.25726957      3.39253702
  H      4.40857615      1.60728497      3.56627715
  H      3.07699428      2.17052379      4.59134430
  H      2.95075265      1.94473431      1.54015192
  C      0.12134340     -3.52895257      0.24217670
  C      1.49257207     -2.81568259      0.27782169
  H     -0.70454575     -2.80995255      0.26012533
  H      0.00222417     -4.20204120      1.09835799
  H      0.03034227     -4.13231122     -0.66808311
  C      2.64928091     -3.84239171      0.18994312
  H      1.55826656     -2.18406694     -0.61457149
  H      2.63757267     -4.52936576      1.04282759
  H      3.62634463     -3.34473306      0.17907017
  H      2.55568117     -4.44178287     -0.72285568
 Zr      3.42709158      1.02055391     -0.86254408
  C      5.50386617      0.52238194     -0.33671983
  H      5.97557230     -0.11179273     -1.10742424
  H      5.55306891     -0.03181685      0.61458827
  H      6.12000201      1.42961408     -0.23090189
  C      3.12431343      3.20177726     -1.01194821
  H      2.10174421      3.53573780     -0.79673392
  H      3.38008654      3.52288009     -2.03781478
  H      3.81171292      3.72424373     -0.32736282
  54
Step 20
  C     -0.20667436      0.43825632     -2.93253745
  C      0.86371028      0.28858978     -2.06004010
  C     -1.49893664      0.46693078     -2.39504352
  H     -0.05620805      0.51964858     -4.00223426
  C     -1.68653336      0.36042547     -1.00925982
  H     -2.35049047      0.56926329     -3.05679103
  C     -0.59705419      0.23903762     -0.14448874
  H     -2.69036075      0.38083309     -0.60050674
  C      0.71446300      0.20696019     -0.65431734
  H     -0.74090489      0.16269331      0.92663501
  O      2.24511205      0.23374544     -2.52978422
  C      2.52585458     -0.39425248     -3.84786073
  H      1.98508309     -1.33968966     -3.90138028
  H      3.60275320     -0.55994346     -3.87993504
  H      2.22037752      0.28918239     -4.64007153
  N      1.89063940      0.12508484      0.13632587
  C      1.89343438     -0.52751149      1.42957452
  C      2.16733658      0.24705501      2.59076433
  C      1.64892876     -1.92327092      1.51198803
  C      2.11365118     -0.39440822      3.83679171
  C      1.60347791     -2.50978462      2.78617614
  C      1.82021454     -1.75559307      3.93818105
  H      1.40774294     -3.57307167      2.87430951
  H      1.77943821     -2.22903666      4.91325345
  H      2.30566741      0.17287374      4.73937671
  C      2.47986066      1.74430727      2.51938820
  C      1.18827858      2.59365061      2.56424162
  H      0.49751518      2.32052681      1.75952227
  H      1.42185442      3.66011104      2.46979727
  H      0.67148723      2.44379419      3.51935489
  C      3.49066567      2.21838714      3.58328009
  H      3.76873649      3.26051102      3.39301183
  H      4.40205300      1.61092980      3.57597185
  H      3.06462276      2.17833001      4.59126996
  H      2.95526651      1.94560575      1.54029484
  C      0.11664776     -3.52900708      0.25020605
  C      1.48736909     -2.81469605      0.27911146
  H     -0.70976222     -2.81068823      0.27169429
  H      0.00172695     -4.20196414      1.10711262
  H      0.02168837     -4.13277451     -0.65940916
  C      2.64446533     -3.83991422      0.18489861
  H      1.54794346     -2.18265994     -0.61354452
  H      2.63935380     -4.52660033      1.03817015
  H      3.62088521     -3.34111769      0.16745755
  H      2.54603603     -4.44028202     -0.72677966
 Zr      3.42857247      1.01908529     -0.85984049
  C      5.50430871      0.51339613     -0.33712657
  H      5.97586214     -0.12455658     -1.10433000
  H      5.55170145     -0.03665182      0.61679991
  H      6.12164723      1.42028150     -0.23427349
  C      3.12894783      3.20150630     -1.00372183
  H      2.11198044      3.53459154     -0.76210203
  H      3.35752793      3.52482416     -2.03505475
  H      3.83343517      3.72275645     -0.33582651
  54
Step 21
  C     -0.20487866      0.44504028     -2.93318958
  C      0.86527048      0.29200191     -2.06087663
  C     -1.49722503      0.47220070     -2.39602378
  H     -0.05402908      0.52974087     -4.00260304
  C     -1.68523635      0.36057604     -1.01053272
  H     -2.34868920      0.57699463     -3.05755816
  C     -0.59613591      0.23595786     -0.14592798
  H     -2.68925384      0.37939480     -0.60204027
  C      0.71579984      0.20596509     -0.65534167
  H     -0.74022997      0.15556680      0.92495199
  O      2.24685566      0.23686057     -2.53033140
  C      2.52845420     -0.39021591     -3.84849360
  H      1.98994803     -1.33700031     -3.90197191
  H      3.60585187     -0.55293485     -3.88138400
  H      2.22090446      0.29262467     -4.64047157
  N      1.89147336      0.12211674      0.13515358
  C      1.89532174     -0.52979795      1.42855700
  C      2.17156137      0.24591881      2.58875182
  C      1.65133504     -1.92535759      1.51264242
  C      2.12246597     -0.39497254      3.83516191
  C      1.60981335     -2.51114772      2.78741114
  C      1.83034156     -1.75641070      3.93820140
  H      1.41436968     -3.57441932      2.87666365
  H      1.79311526     -2.22934437      4.91369465
  H      2.31666272      0.17274400      4.73700565
  C      2.47958686      1.74412718      2.51604329
  C      1.18456809      2.58849136      2.55516267
  H      0.49710440      2.31228281      1.74867179
  H      1.41434104      3.65578639      2.46043029
  H      0.66511247      2.43775776      3.50873712
  C      3.48330074      2.22421234      3.58387412
  H      3.76061953      3.26609892      3.39122072
  H      4.39595685      1.61861518      3.58446509
  H      3.05121958      2.18748971      4.58945099
  H      2.95872113      1.94735710      1.53881871
  C      0.11217084     -3.52847364      0.25685387
  C      1.48483711     -2.81778891      0.28117704
  H     -0.71230057     -2.80796309      0.27864073
  H     -0.00277044     -4.19936483      1.11540947
  H      0.01346197     -4.13391337     -0.65127988
  C      2.63872049     -3.84607183      0.18498800
  H      1.54451402     -2.18694385     -0.61249757
  H      2.63494337     -4.53151672      1.03932530
  H      3.61652035     -3.35011053      0.16320187
  H      2.53555319     -4.44791556     -0.72520499
 Zr      3.42951818      1.01924382     -0.85859594
  C      5.50504662      0.51164593     -0.33726842
  H      5.97503187     -0.12693349     -1.10490344
  H      5.55389534     -0.03776561      0.61686476
  H      6.12266253      1.41854299     -0.23622682
  C      3.13127897      3.20228810     -0.99763313
  H      2.11703230      3.53266014     -0.74081428
  H      3.34289494      3.52711042     -2.03200438
  H      3.84399167      3.72464878     -0.33965585
  54
Step 22
  C     -0.20498566      0.44849551     -2.93314693
  C      0.86567096      0.29391256     -2.06161223
  C     -1.49715763      0.47286131     -2.39562128
  H     -0.05434918      0.53636752     -4.00232369
  C     -1.68456076      0.35698684     -1.01032798
  H     -2.34896300      0.57876240     -3.05651196
  C     -0.59508637      0.23117886     -0.14650814
  H     -2.68845640      0.37349050     -0.60147390
  C      0.71686074      0.20402395     -0.65640385
  H     -0.73852899      0.14750944      0.92418765
  O      2.24717293      0.24143081     -2.53228937
  C      2.52857917     -0.38537875     -3.85070613
  H      1.99191250     -1.33321530     -3.90351279
  H      3.60626584     -0.54581524     -3.88479523
  H      2.21889007      0.29679084     -4.64239278
  N      1.89261244      0.11974743      0.13366182
  C      1.89683619     -0.53110281      1.42757635
  C      2.17458577      0.24543414      2.58699523
  C      1.65226337     -1.92638933      1.51291220
  C      2.12738051     -0.39480622      3.83378675
  C      1.61197289     -2.51134493      2.78821090
  C      1.83485251     -1.75612939      3.93812442
  H      1.41565195     -3.57436092      2.87832420
  H      1.79905583     -2.22840699      4.91397817
  H      2.32333062      0.17320912      4.73500932
  C      2.48095634      1.74401942      2.51332145
  C      1.18427491      2.58642749      2.54596976
  H      0.50012252      2.30809779      1.73743616
  H      1.41281762      3.65393859      2.45067272
  H      0.66167863      2.43605294      3.49786979
  C      3.47888491      2.22806476      3.58483016
  H      3.75719179      3.26920907      3.38971062
  H      4.39160071      1.62265908      3.59287685
  H      3.04093261      2.19526922      4.58798656
  H      2.96429009      1.94770623      1.53818551
  C      0.10962456     -3.52861814      0.26015538
  C      1.48339771     -2.81976874      0.28241647
  H     -0.71389900     -2.80705683      0.28161083
  H     -0.00538433     -4.19813465      1.11977441
  H      0.00945864     -4.13519559     -0.64705899
  C      2.63545651     -3.85005090      0.18598866
  H      1.54312265     -2.18984123     -0.61183122
  H      2.63141144     -4.53460566      1.04102502
  H      3.61411784     -3.35588936      0.16251240
  H      2.53011460     -4.45264326     -0.72345350
 Zr      3.42990610      1.02019677     -0.85869148
  C      5.50450294      0.51009841     -0.33613984
  H      5.97321365     -0.12938858     -1.10391290
  H      5.55308985     -0.03908356      0.61804882
  H      6.12313274      1.41635393     -0.23583578
  C      3.13455738      3.20425318     -0.99056001
  H      2.12387248      3.53449282     -0.71939176
  H      3.33093426      3.52978712     -2.02774379
  H      3.85621356      3.72609834     -0.34221302
  54
Step 23
  C     -0.20622181      0.45286746     -2.93255088
  C      0.86514886      0.29621385     -2.06220422
  C     -1.49802126      0.47525768     -2.39407419
  H     -0.05622166      0.54373327     -4.00155405
  C     -1.68432725      0.35552648     -1.00892074
  H     -2.35033077      0.58259535     -3.05404106
  C     -0.59418286      0.22793839     -0.14624471
  H     -2.68790486      0.37043731     -0.59929445
  C      0.71742962      0.20276891     -0.65720950
  H     -0.73660268      0.14128966      0.92430912
  O      2.24642934      0.24524005     -2.53448469
  C      2.52704999     -0.38273695     -3.85272001
  H      1.99115099     -1.33104997     -3.90402921
  H      3.60483607     -0.54217802     -3.88786584
  H      2.21592451      0.29847032     -4.64461669
  N      1.89378799      0.11741821      0.13196123
  C      1.89802528     -0.53216120      1.42658952
  C      2.17600479      0.24521134      2.58542277
  C      1.65267429     -1.92720324      1.51300622
  C      2.12891384     -0.39413363      3.83266439
  C      1.61206892     -2.51116165      2.78882840
  C      1.83562477     -1.75523362      3.93810042
  H      1.41501066     -3.57395090      2.87972214
  H      1.79985616     -2.22670579      4.91432399
  H      2.32570880      0.17438353      4.73333834
  C      2.48284885      1.74365097      2.51075824
  C      1.18602399      2.58645484      2.53527173
  H      0.50571690      2.30683453      1.72401148
  H      1.41556402      3.65365808      2.43918477
  H      0.65886584      2.43790325      3.48492933
  C      3.47479085      2.22993757      3.58678803
  H      3.75564544      3.27000794      3.38972685
  H      4.38660799      1.62341137      3.60260477
  H      3.03021641      2.20123041      4.58714238
  H      2.97189364      1.94612112      1.53817562
  C      0.11018200     -3.53066358      0.26125344
  C      1.48390127     -2.82151690      0.28317584
  H     -0.71347658     -2.80927716      0.28209083
  H     -0.00465512     -4.19955860      1.12136647
  H      0.01040645     -4.13788374     -0.64555040
  C      2.63597554     -3.85205581      0.18787447
  H      1.54379171     -2.19225108     -0.61145253
  H      2.63112046     -4.53605757      1.04332162
  H      3.61471115     -3.35806653      0.16472185
  H      2.53096320     -4.45498994     -0.72136158
 Zr      3.42975177      1.02049936     -0.85951176
  C      5.50319450      0.50803460     -0.33626859
  H      5.97060170     -0.13263552     -1.10393696
  H      5.55111095     -0.04073395      0.61812732
  H      6.12304840      1.41350342     -0.23664502
  C      3.13616916      3.20493673     -0.98259608
  H      2.13016217      3.53590868     -0.69517130
  H      3.31596962      3.53121179     -2.02262134
  H      3.86846600      3.72524889     -0.34516575
  54
Step 24
  C     -0.20875698      0.45922157     -2.93031689
  C      0.86406982      0.29995090     -2.06221004
  C     -1.49983536      0.47806682     -2.38995163
  H     -0.06020076      0.55491652     -3.99908386
  C     -1.68391299      0.35244529     -1.00504665
  H     -2.35316875      0.58724563     -3.04823276
  C     -0.59235255      0.22272768     -0.14447147
  H     -2.68686043      0.36452992     -0.59388263
  C      0.71852305      0.20094967     -0.65747531
  H     -0.73290833      0.13160367      0.92588326
  O      2.24474969      0.25234171     -2.53750598
  C      2.52360053     -0.37730442     -3.85562792
  H      1.98883469     -1.32633480     -3.90449618
  H      3.60149318     -0.53531021     -3.89281302
  H      2.20991224      0.30242330     -4.64770647
  N      1.89610435      0.11392555      0.12988229
  C      1.90023389     -0.53408059      1.42546752
  C      2.17781993      0.24453162      2.58352190
  C      1.65322020     -1.92872446      1.51336724
  C      2.12895918     -0.39322760      3.83151420
  C      1.61056048     -2.51100768      2.78995635
  C      1.83384319     -1.75384356      3.93842477
  H      1.41202349     -3.57338828      2.88200734
  H      1.79652736     -2.22392675      4.91523223
  H      2.32588949      0.17614472      4.73152831
  C      2.48685472      1.74248906      2.50674876
  C      1.19103214      2.58744900      2.51346365
  H      0.51864702      2.30542089      1.69654088
  H      1.42366727      3.65376910      2.41529404
  H      0.65382762      2.44383886      3.45822795
  C      3.46722255      2.23275330      3.59159493
  H      3.75397012      3.27045769      3.39076298
  H      4.37667421      1.62340154      3.62290223
  H      3.00972642      2.21260795      4.58628405
  H      2.98780215      1.94101374      1.53927763
  C      0.11201329     -3.53456750      0.26230887
  C      1.48526668     -2.82435322      0.28437683
  H     -0.71221331     -2.81382200      0.28222278
  H     -0.00260886     -4.20292109      1.12284561
  H      0.01329542     -4.14246433     -0.64412485
  C      2.63806113     -3.85454811      0.19095319
  H      1.54534731     -2.19596909     -0.61074481
  H      2.63218698     -4.53781709      1.04694256
  H      3.61655582     -3.36010595      0.16871597
  H      2.53430831     -4.45794745     -0.71809628
 Zr      3.43010816      1.02113522     -0.86080740
  C      5.50271782      0.50389746     -0.33910820
  H      5.96714372     -0.13819690     -1.10747993
  H      5.55022018     -0.04503216      0.61516234
  H      6.12511012      1.40767377     -0.24025217
  C      3.13779356      3.20648410     -0.96837919
  H      2.14065617      3.53871384     -0.65279837
  H      3.28939989      3.53489663     -2.01232044
  H      3.88824476      3.72356652     -0.34977822
  54
Step 25
  C     -0.21335837      0.47301869     -2.92527994
  C      0.86225959      0.30798697     -2.06171605
  C     -1.50299198      0.48506084     -2.38117658
  H     -0.06773363      0.57850317     -3.99351539
  C     -1.68262743      0.34745111     -0.99688085
  H     -2.35835449      0.59830073     -3.03605576
  C     -0.58827784      0.21280352     -0.14054966
  H     -2.68430767      0.35412111     -0.58262231
  C      0.72113993      0.19754413     -0.65749476
  H     -0.72535608      0.11254971      0.92932884
  O      2.24160505      0.26633660     -2.54263068
  C      2.51706187     -0.36628508     -3.86055965
  H      1.98416325     -1.31651848     -3.90492175
  H      3.59512402     -0.52184527     -3.90162838
  H      2.19864527      0.31081403     -4.65288623
  N      1.90115515      0.10671955      0.12621957
  C      1.90424076     -0.53848093      1.42361929
  C      2.18042895      0.24276944      2.58026087
  C      1.65394462     -1.93224915      1.51450348
  C      2.12751074     -0.39149750      3.82979786
  C      1.60692213     -2.51103025      2.79267412
  C      1.82890104     -1.75119814      3.93960269
  H      1.40592804     -3.57270094      2.88710276
  H      1.78815627     -2.21847943      4.91758464
  H      2.32435068      0.17979970      4.72847921
  C      2.49591175      1.73928775      2.49849787
  C      1.20440581      2.59043567      2.46531570
  H      0.54970766      2.30449922      1.63569380
  H      1.44538035      3.65451923      2.36346481
  H      0.64418036      2.45824433      3.39833440
  C      3.44988012      2.23725901      3.60313833
  H      3.75232916      3.26885102      3.39432753
  H      4.35196810      1.62014568      3.67034962
  H      2.96271584      2.23752697      4.58381413
  H      3.02412388      1.92718964      1.54305736
  C      0.11611003     -3.54325276      0.26486069
  C      1.48814866     -2.83058789      0.28724242
  H     -0.70942065     -2.82395975      0.28291396
  H      0.00186653     -4.21063205      1.12616727
  H      0.01956161     -4.15250160     -0.64085282
  C      2.64277303     -3.85952009      0.19783751
  H      1.54846224     -2.20398344     -0.60898197
  H      2.63557410     -4.54094855      1.05524317
  H      3.62052903     -3.36367814      0.17689709
  H      2.54167163     -4.46445371     -0.71045191
 Zr      3.43091719      1.02254787     -0.86304999
  C      5.50288300      0.49679834     -0.34883087
  H      5.96011995     -0.14652980     -1.12060511
  H      5.55164484     -0.05412934      0.60414246
  H      6.13025375      1.39715070     -0.25107034
  C      3.13749344      3.20851292     -0.93845619
  H      2.16090786      3.54071031     -0.56405033
  H      3.22940977      3.54323695     -1.98746566
  H      3.92336109      3.71946740     -0.36003826

======= END OF MOLDEN-FORMATTED INPUT FILE =======


        *************************************************************
        *                                                           *
        *  Thank you very much for using Q-Chem.  Have a nice day.  *
        *                                                           *
        *************************************************************


0 sent ACK to 0 
now end server 0 ... 
