  7
Step 11
  N     -2.62606417     -0.01953035      0.39284078
  C     -1.72365611      0.81543406      0.62572681
  C     -0.13913737      0.90948574      0.36712612
  O      0.57507757     -0.05858466     -0.24280566
  H     -1.90326974      1.92229921      1.19926759
  H      0.21528292      1.21502238      1.44956771
  H     -0.08610311      1.98184360     -0.12050335
