45
Step 52
C          0.30069       -4.71424       -1.05715
C          1.23875       -3.78096       -0.62478
C         -0.38004       -4.54959       -2.27851
H          0.08241       -5.58376       -0.44366
C         -0.09567       -3.41259       -3.04645
H         -1.10708       -5.28777       -2.60492
C          0.84437       -2.47731       -2.61835
H         -0.61155       -3.25253       -3.99208
C          1.57748       -2.60490       -1.39441
H          1.06111       -1.59300       -3.21019
O          1.91282       -3.89256        0.61344
C          1.23752       -4.54225        1.70315
H          0.25935       -4.08235        1.90648
H          1.89161       -4.41703        2.56797
H          1.08743       -5.61590        1.51548
N          2.40940       -1.60595       -1.02087
C          3.57346       -1.63902       -0.28582
C          4.00370       -0.43298        0.37596
C          4.47967       -2.75952       -0.26203
C          5.23674       -0.39360        1.03565
C          5.70393       -2.66202        0.41032
C          6.09852       -1.49589        1.07218
H          6.37244       -3.52214        0.40418
H          7.05110       -1.44337        1.59382
H          5.52505        0.52873        1.54015
C          3.13924        0.82941        0.39263
C          1.80372        0.63575       -0.36478
H          1.99001        0.37985       -1.41602
H          1.20184        1.55619       -0.33541
H          1.24802       -0.18184        0.10288
C          2.89183        1.37514        1.81861
H          2.34278        2.32783        1.77570
H          3.84267        1.54497        2.33863
H          2.31007        0.65565        2.39870
H          3.71223        1.60055       -0.15001
C          4.66464       -5.31023       -0.30669
C          4.17068       -4.04134       -1.03749
H          4.23718       -5.35114        0.69948
H          5.75947       -5.32084       -0.21357
H          4.36759       -6.21725       -0.85212
C          4.74531       -3.97840       -2.47382
H          3.08595       -4.12600       -1.13235
H          5.84069       -3.89939       -2.45808
H          4.35206       -3.10394       -3.00444
H          4.47808       -4.87874       -3.04622
45
Step 52
C          0.08656       -3.81898       -2.97442
C          0.85296       -2.70557       -2.64146
C         -0.01306       -4.92066       -2.10346
H         -0.44184       -3.84606       -3.92318
C          0.68978       -4.87224       -0.89224
H         -0.61760       -5.78141       -2.37494
C          1.45606       -3.75860       -0.55417
H          0.63952       -5.71210       -0.20081
C          1.57748       -2.60490       -1.39441
H          2.00563       -3.72273        0.38175
O          1.00813       -1.59824       -3.50734
C          0.34505       -1.62919       -4.78208
H          0.61018       -2.52935       -5.35575
H          0.68913       -0.73891       -5.31164
H         -0.74967       -1.58891       -4.67991
N          2.40940       -1.60595       -1.02087
C          3.57346       -1.63902       -0.28582
C          4.00370       -0.43298        0.37596
C          4.47967       -2.75952       -0.26203
C          5.23674       -0.39360        1.03565
C          5.70393       -2.66202        0.41032
C          6.09852       -1.49589        1.07218
H          6.37244       -3.52214        0.40418
H          7.05110       -1.44337        1.59382
H          5.52505        0.52873        1.54015
C          3.13924        0.82941        0.39263
C          1.80372        0.63575       -0.36478
H          1.99001        0.37985       -1.41602
H          1.20184        1.55619       -0.33541
H          1.24802       -0.18184        0.10288
C          2.89183        1.37514        1.81861
H          2.34278        2.32783        1.77570
H          3.84267        1.54497        2.33863
H          2.31007        0.65565        2.39870
H          3.71223        1.60055       -0.15001
C          3.95458       -5.25820       -0.10976
C          4.17068       -4.04134       -1.03749
H          3.16299       -5.03994        0.61310
H          4.86805       -5.50637        0.44830
H          3.66627       -6.14661       -0.68944
C          5.27094       -4.34035       -2.08497
H          3.24041       -3.88725       -1.58854
H          6.24100       -4.51482       -1.60031
H          5.38475       -3.49381       -2.77149
H          5.02140       -5.23348       -2.67633
  45
Step 52
  C     -0.24376101     -4.07945314     -0.04518815
  C      0.90430058     -3.29714103      0.04334294
  C     -1.03323052     -4.08382052     -1.21092224
  H     -0.54332780     -4.69526043      0.79809772
  C     -0.63808110     -3.26968134     -2.28069185
  H     -1.92475568     -4.70193791     -1.26712485
  C      0.51173218     -2.48699909     -2.19695283
  H     -1.23219653     -3.24482779     -3.19304242
  C      1.35961316     -2.45858847     -1.04280472
  H      0.81546572     -1.85143792     -3.02343217
  O      1.69968242     -3.23706658      1.21115553
  C      1.20651266     -3.86347449      2.40697527
  H      0.20636970     -3.49343866      2.67616186
  H      1.92060729     -3.60096401      3.18965518
  H      1.16070937     -4.95857857      2.31149048
  N      2.40939988     -1.60594509     -1.02086817
  C      3.57345663     -1.63901969     -0.28581871
  C      4.00369877     -0.43298080      0.37595515
  C      4.47966894     -2.75952295     -0.26202902
  C      5.23674185     -0.39359921      1.03565109
  C      5.70392535     -2.66201905      0.41031911
  C      6.09851827     -1.49589221      1.07217933
  H      6.37243769     -3.52213638      0.40417562
  H      7.05109792     -1.44337358      1.59381826
  H      5.52504761      0.52872894      1.54014981
  C      3.13923868      0.82940841      0.39262891
  C      2.95330274      1.43162817     -1.02071168
  H      3.92415198      1.70482232     -1.45441957
  H      2.32721519      2.33533454     -0.98016207
  H      2.47903619      0.68446099     -1.66319763
  C      1.77362844      0.61906268      1.08783338
  H      1.22544622      1.57090167      1.15425461
  H      1.91213422      0.22609284      2.10260253
  H      1.17334586     -0.09799785      0.52382602
  H      3.69253771      1.57197566      0.99254502
  C      4.19254541     -5.29814948     -0.13854954
  C      4.17067639     -4.04133857     -1.03749407
  H      3.49757515     -5.17118276      0.69671550
  H      5.19421814     -5.48012456      0.27494359
  H      3.89920065     -6.19192491     -0.70734196
  C      5.13014303     -4.21227204     -2.24057329
  H      3.16130784     -3.95472414     -1.44549708
  H      6.17091265     -4.31379560     -1.90466807
  H      5.07300770     -3.34001942     -2.90148448
  H      4.87374249     -5.10699798     -2.82656235

