7
Step 11
N         -2.62627       -0.01900        0.39175
C         -1.72366        0.81543        0.62573
C         -0.13914        0.90949        0.36713
O          0.57508       -0.05858       -0.24281
H         -1.90297        1.92154        1.20082
H          0.21528        1.21502        1.44957
H         -0.08610        1.98184       -0.12050
7
Step 11
N         -2.59545        1.54455        1.14929
C         -1.72366        0.81543        0.62573
C         -0.13914        0.90949        0.36713
O          0.57508       -0.05858       -0.24281
H         -1.94723       -0.31459        0.11638
H          0.21528        1.21502        1.44957
H         -0.08610        1.98184       -0.12050
