  45
Step 52
  C     -0.24376101     -4.07945314     -0.04518815
  C      0.90430058     -3.29714103      0.04334294
  C     -1.03323052     -4.08382052     -1.21092224
  H     -0.54332780     -4.69526043      0.79809772
  C     -0.63808110     -3.26968134     -2.28069185
  H     -1.92475568     -4.70193791     -1.26712485
  C      0.51173218     -2.48699909     -2.19695283
  H     -1.23219653     -3.24482779     -3.19304242
  C      1.35961316     -2.45858847     -1.04280472
  H      0.81546572     -1.85143792     -3.02343217
  O      1.69968242     -3.23706658      1.21115553
  C      1.20651266     -3.86347449      2.40697527
  H      0.20636970     -3.49343866      2.67616186
  H      1.92060729     -3.60096401      3.18965518
  H      1.16070937     -4.95857857      2.31149048
  N      2.40939988     -1.60594509     -1.02086817
  C      3.57345663     -1.63901969     -0.28581871
  C      4.00369877     -0.43298080      0.37595515
  C      4.47966894     -2.75952295     -0.26202902
  C      5.23674185     -0.39359921      1.03565109
  C      5.70392535     -2.66201905      0.41031911
  C      6.09851827     -1.49589221      1.07217933
  H      6.37243769     -3.52213638      0.40417562
  H      7.05109792     -1.44337358      1.59381826
  H      5.52504761      0.52872894      1.54014981
  C      3.13923868      0.82940841      0.39262891
  C      2.95330274      1.43162817     -1.02071168
  H      3.92415198      1.70482232     -1.45441957
  H      2.32721519      2.33533454     -0.98016207
  H      2.47903619      0.68446099     -1.66319763
  C      1.77362844      0.61906268      1.08783338
  H      1.22544622      1.57090167      1.15425461
  H      1.91213422      0.22609284      2.10260253
  H      1.17334586     -0.09799785      0.52382602
  H      3.69253771      1.57197566      0.99254502
  C      4.19254541     -5.29814948     -0.13854954
  C      4.17067639     -4.04133857     -1.03749407
  H      3.49757515     -5.17118276      0.69671550
  H      5.19421814     -5.48012456      0.27494359
  H      3.89920065     -6.19192491     -0.70734196
  C      5.13014303     -4.21227204     -2.24057329
  H      3.16130784     -3.95472414     -1.44549708
  H      6.17091265     -4.31379560     -1.90466807
  H      5.07300770     -3.34001942     -2.90148448
  H      4.87374249     -5.10699798     -2.82656235
