 *******************************************************************************
 ** Site#: 14762        For non-commercial use only    Version 17.165L 64BITS **
 *******************************************************************************
 ** Cite this program as: MOPAC2016, Version: 17.165L, James J. P. Stewart,   **
 ** Stewart Computational Chemistry, web: HTTP://OpenMOPAC.net. Days left: 226**
 *******************************************************************************
 **                                                                           **
 **                                MOPAC2016                                  **
 **                                                                           **
 *******************************************************************************

                              PM6 CALCULATION RESULTS


 *******************************************************************************
 *  CALCULATION DONE:                                Tue Oct 31 21:12:13 2017  *
 *  PM6        - The PM6 Hamiltonian to be used
 *
 *
 *
 *                 CHARGE ON SYSTEM =    +1
 *
 *
 *
 *  NOSYM      - POINT-GROUP SYMMETRY SET TO C1
 *  T=         - A TIME OF     12.0 MINUTES REQUESTED
 *  DUMP=N     - RESTART FILE WRITTEN EVERY  7200.000 SECONDS
 *  GNORM=     - EXIT WHEN GRADIENT NORM DROPS BELOW   5.00    
 *  AUX        - OUTPUT AUXILIARY INFORMATION
 *  LOCALIZE   - LOCALIZED ORBITALS TO BE PRINTED
 *******************************************************************************
 PM6 NOSYM T=12M GNORM=5.000000 CHARGE=1 AUX LOCALIZE
   MOPAC run
   ready to go?
   ATOM   CHEMICAL          X               Y               Z
  NUMBER   SYMBOL      (ANGSTROMS)     (ANGSTROMS)     (ANGSTROMS)
 
     1       C         -0.31552100  *   0.86796300  *  -2.91301500  *
     2       C          0.68399700  *   0.72626800  *  -1.95953600  *
     3       C         -1.50959400  *   0.16885600  *  -2.70780900  *
     4       H         -0.20049900  *   1.48566200  *  -3.80143000  *
     5       C         -1.67677300  *  -0.63545200  *  -1.57153400  *
     6       H         -2.32031600  *   0.26254600  *  -3.43376000  *
     7       C         -0.64364600  *  -0.80751000  *  -0.65071600  *
     8       H         -2.62512400  *  -1.16042600  *  -1.41783200  *
     9       C          0.58766000  *  -0.15159900  *  -0.83484600  *
    10       H         -0.78147900  *  -1.46499400  *   0.21131900  *
    11       O          1.93961900  *   1.45548600  *  -2.00580400  *
    12       C          1.92879800  *   2.59878100  *  -2.93791600  *
    13       H          1.97049000  *   2.19605300  *  -3.95904000  *
    14       H          2.84263200  *   3.17863000  *  -2.70509500  *
    15       H          1.02169400  *   3.18866500  *  -2.75464500  *
    16       N          1.76489000  *  -0.25931700  *  -0.07429400  *
    17       C          1.84166700  *  -0.70663300  *   1.29751000  *
    18       C          2.30375700  *   0.27523100  *   2.23559400  *
    19       C          1.73210800  *  -2.06721500  *   1.66226200  *
    20       C          2.79376300  *  -0.17965800  *   3.46518100  *
    21       C          2.18060600  *  -2.45549200  *   2.93463500  *
    22       C          2.73429300  *  -1.52945900  *   3.81449500  *
    23       H          2.09948700  *  -3.50383500  *   3.23371800  *
    24       H          3.12174900  *  -1.85542400  *   4.78148500  *
    25       H          3.23905700  *   0.51672900  *   4.18048400  *
    26       C          2.24409700  *   1.78130500  *   1.96396500  *
    27       C          0.84136700  *   2.25782200  *   1.56429300  *
    28       H          0.46081900  *   1.91457300  *   0.60042100  *
    29       H          0.77206300  *   3.35495700  *   1.55935600  *
    30       H          0.10178500  *   1.91497900  *   2.30928900  *
    31       C          2.68570800  *   2.63284800  *   3.16562600  *
    32       H          2.60509700  *   3.70674200  *   2.95580200  *
    33       H          3.72639900  *   2.44235800  *   3.45706000  *
    34       H          2.05715900  *   2.44427600  *   4.04883400  *
    35       H          3.02839600  *   2.08436400  *   1.13050300  *
    36       C          0.03909000  *  -3.90604900  *   1.41738700  *
    37       C          1.19121600  *  -3.15018200  *   0.74259300  *
    38       H         -0.71845000  *  -3.22575000  *   1.81645400  *
    39       H          0.38430100  *  -4.53670200  *   2.24596400  *
    40       H         -0.45841500  *  -4.57653900  *   0.70515900  *
    41       C          2.32257900  *  -4.10396600  *   0.33839400  *
    42       H          0.78434500  *  -2.69128300  *  -0.19170200  *
    43       H          2.79054800  *  -4.58685300  *   1.20560800  *
    44       H          3.11554600  *  -3.57998400  *  -0.20336700  *
    45       H          1.94874500  *  -4.90829100  *  -0.30861300  *
    46      Zr          3.42900600  *   0.91609700  *  -0.60272100  *
    47       C          5.10540100  *   0.02568100  *   0.62858300  *
    48       H          5.72608700  *  -0.42429600  *  -0.16696700  *
    49       H          4.75150300  *  -0.77781600  *   1.28520200  *
    50       H          5.74910400  *   0.67102800  *   1.22640100  *
    51       C          4.85195300  *   2.09858700  *  -1.90703200  *
    52       H          4.70075200  *   2.82484000  *  -2.69478400  *
    53       H          5.26891500  *   1.16785700  *  -2.36254400  *
    54       H          5.61304300  *   2.51141000  *  -1.22954200  *
 


          CARTESIAN COORDINATES 

    NO.       ATOM         X         Y         Z

     1         C       -0.3155    0.8680   -2.9130
     2         C        0.6840    0.7263   -1.9595
     3         C       -1.5096    0.1689   -2.7078
     4         H       -0.2005    1.4857   -3.8014
     5         C       -1.6768   -0.6355   -1.5715
     6         H       -2.3203    0.2625   -3.4338
     7         C       -0.6436   -0.8075   -0.6507
     8         H       -2.6251   -1.1604   -1.4178
     9         C        0.5877   -0.1516   -0.8348
    10         H       -0.7815   -1.4650    0.2113
    11         O        1.9396    1.4555   -2.0058
    12         C        1.9288    2.5988   -2.9379
    13         H        1.9705    2.1961   -3.9590
    14         H        2.8426    3.1786   -2.7051
    15         H        1.0217    3.1887   -2.7546
    16         N        1.7649   -0.2593   -0.0743
    17         C        1.8417   -0.7066    1.2975
    18         C        2.3038    0.2752    2.2356
    19         C        1.7321   -2.0672    1.6623
    20         C        2.7938   -0.1797    3.4652
    21         C        2.1806   -2.4555    2.9346
    22         C        2.7343   -1.5295    3.8145
    23         H        2.0995   -3.5038    3.2337
    24         H        3.1217   -1.8554    4.7815
    25         H        3.2391    0.5167    4.1805
    26         C        2.2441    1.7813    1.9640
    27         C        0.8414    2.2578    1.5643
    28         H        0.4608    1.9146    0.6004
    29         H        0.7721    3.3550    1.5594
    30         H        0.1018    1.9150    2.3093
    31         C        2.6857    2.6328    3.1656
    32         H        2.6051    3.7067    2.9558
    33         H        3.7264    2.4424    3.4571
    34         H        2.0572    2.4443    4.0488
    35         H        3.0284    2.0844    1.1305
    36         C        0.0391   -3.9060    1.4174
    37         C        1.1912   -3.1502    0.7426
    38         H       -0.7185   -3.2258    1.8165
    39         H        0.3843   -4.5367    2.2460
    40         H       -0.4584   -4.5765    0.7052
    41         C        2.3226   -4.1040    0.3384
    42         H        0.7843   -2.6913   -0.1917
    43         H        2.7905   -4.5869    1.2056
    44         H        3.1155   -3.5800   -0.2034
    45         H        1.9487   -4.9083   -0.3086
    46        Zr        3.4290    0.9161   -0.6027
    47         C        5.1054    0.0257    0.6286
    48         H        5.7261   -0.4243   -0.1670
    49         H        4.7515   -0.7778    1.2852
    50         H        5.7491    0.6710    1.2264
    51         C        4.8520    2.0986   -1.9070
    52         H        4.7008    2.8248   -2.6948
    53         H        5.2689    1.1679   -2.3625
    54         H        5.6130    2.5114   -1.2295

 General Reference for PM6:
 "Optimization of Parameters for Semiempirical Methods V: Modification of NDDO Approximations
 and Application to 70 Elements", J. J. P. Stewart, J. Mol. Mod., 13, 1173-1213 (2007)
 URL: http://www.springerlink.com/content/ar33482301010477/fulltext.pdf

           Empirical Formula: C21 H30 N O Zr  =    54 atoms



      MOLECULAR POINT GROUP   :   C1  


      RHF CALCULATION, NO. OF DOUBLY OCCUPIED LEVELS = 64


          Geometry optimization using L-BFGS
 CYCLE:     1 TIME:   0.195 TIME LEFT: 11.99M  GRAD.:    85.144 HEAT:  112.6477
 CYCLE:     2 TIME:   0.117 TIME LEFT: 11.99M  GRAD.:    84.091 HEAT:  112.5754
 CYCLE:     3 TIME:   0.117 TIME LEFT: 11.99M  GRAD.:    27.504 HEAT:  109.3517
 CYCLE:     4 TIME:   0.125 TIME LEFT: 11.99M  GRAD.:    85.131 HEAT:  112.5805
 CYCLE:     5 TIME:   0.125 TIME LEFT: 11.98M  GRAD.:    30.674 HEAT:  109.3874
 CYCLE:     6 TIME:   0.117 TIME LEFT: 11.98M  GRAD.:    25.310 HEAT:  109.0748
 CYCLE:     7 TIME:   0.117 TIME LEFT: 11.98M  GRAD.:    14.561 HEAT:  108.9143
 CYCLE:     8 TIME:   0.125 TIME LEFT: 11.98M  GRAD.:    17.022 HEAT:  108.6230
 CYCLE:     9 TIME:   0.117 TIME LEFT: 11.98M  GRAD.:    16.352 HEAT:  108.3947
 CYCLE:    10 TIME:   0.102 TIME LEFT: 11.97M  GRAD.:    14.223 HEAT:  108.1817
 CYCLE:    11 TIME:   0.094 TIME LEFT: 11.97M  GRAD.:    13.291 HEAT:  107.9399
 CYCLE:    12 TIME:   0.102 TIME LEFT: 11.97M  GRAD.:    14.340 HEAT:  107.7663
 CYCLE:    13 TIME:   0.102 TIME LEFT: 11.97M  GRAD.:    11.057 HEAT:  107.6286
 CYCLE:    14 TIME:   0.102 TIME LEFT: 11.97M  GRAD.:    10.772 HEAT:  107.5338
 CYCLE:    15 TIME:   0.094 TIME LEFT: 11.97M  GRAD.:     7.843 HEAT:  107.4548
 CYCLE:    16 TIME:   0.094 TIME LEFT: 11.96M  GRAD.:     8.779 HEAT:  107.3835
 CYCLE:    17 TIME:   0.102 TIME LEFT: 11.96M  GRAD.:    15.010 HEAT:  107.2819
 CYCLE:    18 TIME:   0.102 TIME LEFT: 11.96M  GRAD.:    10.207 HEAT:  107.1718
 CYCLE:    19 TIME:   0.094 TIME LEFT: 11.96M  GRAD.:     9.874 HEAT:  107.0688
 CYCLE:    20 TIME:   0.109 TIME LEFT: 11.96M  GRAD.:    11.273 HEAT:  106.9122
 CYCLE:    21 TIME:   0.125 TIME LEFT: 11.95M  GRAD.:    23.020 HEAT:  106.8024
 CYCLE:    22 TIME:   0.125 TIME LEFT: 11.95M  GRAD.:     9.901 HEAT:  106.6367
 CYCLE:    23 TIME:   0.117 TIME LEFT: 11.95M  GRAD.:     9.900 HEAT:  106.5034
 CYCLE:    24 TIME:   0.094 TIME LEFT: 11.95M  GRAD.:    10.551 HEAT:  106.3469
 CYCLE:    25 TIME:   0.094 TIME LEFT: 11.95M  GRAD.:    11.128 HEAT:  106.1580
 CYCLE:    26 TIME:   0.109 TIME LEFT: 11.95M  GRAD.:    20.599 HEAT:  106.0145
 CYCLE:    27 TIME:   0.109 TIME LEFT: 11.94M  GRAD.:    28.407 HEAT:  105.9093
 CYCLE:    28 TIME:   0.109 TIME LEFT: 11.94M  GRAD.:    10.062 HEAT:  105.7214
 CYCLE:    29 TIME:   0.125 TIME LEFT: 11.94M  GRAD.:     7.651 HEAT:  105.6578
 CYCLE:    30 TIME:   0.133 TIME LEFT: 11.94M  GRAD.:     8.880 HEAT:  105.5892
 CYCLE:    31 TIME:   0.148 TIME LEFT: 11.94M  GRAD.:    12.475 HEAT:  105.4792
 CYCLE:    32 TIME:   0.141 TIME LEFT: 11.93M  GRAD.:    36.766 HEAT:  105.4440
 CYCLE:    33 TIME:   0.133 TIME LEFT: 11.93M  GRAD.:    11.633 HEAT:  105.1424
 CYCLE:    34 TIME:   0.148 TIME LEFT: 11.93M  GRAD.:     8.914 HEAT:  105.0084
 CYCLE:    35 TIME:   0.141 TIME LEFT: 11.93M  GRAD.:    12.281 HEAT:  104.8550
 CYCLE:    36 TIME:   0.125 TIME LEFT: 11.92M  GRAD.:    12.170 HEAT:  104.6834
 CYCLE:    37 TIME:   0.156 TIME LEFT: 11.92M  GRAD.:     9.505 HEAT:  104.4840
 CYCLE:    38 TIME:   0.148 TIME LEFT: 11.92M  GRAD.:    22.166 HEAT:  104.3954
 CYCLE:    39 TIME:   0.117 TIME LEFT: 11.92M  GRAD.:     8.059 HEAT:  104.2705
 CYCLE:    40 TIME:   0.125 TIME LEFT: 11.91M  GRAD.:     7.358 HEAT:  104.2191
 CYCLE:    41 TIME:   0.117 TIME LEFT: 11.91M  GRAD.:    10.265 HEAT:  104.1585
 CYCLE:    42 TIME:   0.117 TIME LEFT: 11.91M  GRAD.:     8.541 HEAT:  104.0797
 CYCLE:    43 TIME:   0.125 TIME LEFT: 11.91M  GRAD.:     6.476 HEAT:  104.0125
 CYCLE:    44 TIME:   0.125 TIME LEFT: 11.91M  GRAD.:     9.972 HEAT:  103.9150
 CYCLE:    45 TIME:   0.117 TIME LEFT: 11.90M  GRAD.:    11.853 HEAT:  103.8154
 CYCLE:    46 TIME:   0.094 TIME LEFT: 11.90M  GRAD.:     9.921 HEAT:  103.7052
 CYCLE:    47 TIME:   0.109 TIME LEFT: 11.90M  GRAD.:    14.118 HEAT:  103.5241
 CYCLE:    48 TIME:   0.125 TIME LEFT: 11.90M  GRAD.:    13.805 HEAT:  103.4076
 CYCLE:    49 TIME:   0.109 TIME LEFT: 11.90M  GRAD.:     7.094 HEAT:  103.3397
 CYCLE:    50 TIME:   0.109 TIME LEFT: 11.90M  GRAD.:     8.701 HEAT:  103.2680
 CYCLE:    51 TIME:   0.109 TIME LEFT: 11.89M  GRAD.:     8.129 HEAT:  103.2134
 CYCLE:    52 TIME:   0.109 TIME LEFT: 11.89M  GRAD.:    10.724 HEAT:  103.1425
 CYCLE:    53 TIME:   0.125 TIME LEFT: 11.89M  GRAD.:     8.841 HEAT:  103.0886
 CYCLE:    54 TIME:   0.117 TIME LEFT: 11.89M  GRAD.:     6.974 HEAT:  103.0499
 CYCLE:    55 TIME:   0.125 TIME LEFT: 11.89M  GRAD.:     7.055 HEAT:  102.9837
 CYCLE:    56 TIME:   0.125 TIME LEFT: 11.88M  GRAD.:    15.420 HEAT:  102.9527
 CYCLE:    57 TIME:   0.125 TIME LEFT: 11.88M  GRAD.:     6.131 HEAT:  102.8911
 CYCLE:    58 TIME:   0.125 TIME LEFT: 11.88M  GRAD.:     6.774 HEAT:  102.8444
 CYCLE:    59 TIME:   0.172 TIME LEFT: 11.88M  GRAD.:     7.651 HEAT:  102.7866
 CYCLE:    60 TIME:   0.141 TIME LEFT: 11.87M  GRAD.:    12.786 HEAT:  102.6905
 CYCLE:    61 TIME:   0.133 TIME LEFT: 11.87M  GRAD.:     9.247 HEAT:  102.6159
 CYCLE:    62 TIME:   0.125 TIME LEFT: 11.87M  GRAD.:     5.742 HEAT:  102.5761
 CYCLE:    63 TIME:   0.133 TIME LEFT: 11.87M  GRAD.:     9.111 HEAT:  102.5271
 CYCLE:    64 TIME:   0.133 TIME LEFT: 11.87M  GRAD.:     7.896 HEAT:  102.4799
 CYCLE:    65 TIME:   0.133 TIME LEFT: 11.86M  GRAD.:     6.161 HEAT:  102.4002
 CYCLE:    66 TIME:   0.133 TIME LEFT: 11.86M  GRAD.:    12.598 HEAT:  102.3391
 CYCLE:    67 TIME:   0.141 TIME LEFT: 11.86M  GRAD.:     8.688 HEAT:  102.2618
 CYCLE:    68 TIME:   0.133 TIME LEFT: 11.86M  GRAD.:     7.567 HEAT:  102.1698
 CYCLE:    69 TIME:   0.133 TIME LEFT: 11.85M  GRAD.:    11.693 HEAT:  102.0765
 CYCLE:    70 TIME:   0.133 TIME LEFT: 11.85M  GRAD.:     9.616 HEAT:  101.9652
 CYCLE:    71 TIME:   0.133 TIME LEFT: 11.85M  GRAD.:     8.156 HEAT:  101.8332
 CYCLE:    72 TIME:   0.133 TIME LEFT: 11.85M  GRAD.:    13.274 HEAT:  101.7060
 CYCLE:    73 TIME:   0.125 TIME LEFT: 11.85M  GRAD.:     8.563 HEAT:  101.6047
 CYCLE:    74 TIME:   0.133 TIME LEFT: 11.84M  GRAD.:     7.262 HEAT:  101.5325
 CYCLE:    75 TIME:   0.125 TIME LEFT: 11.84M  GRAD.:    10.344 HEAT:  101.4260
 CYCLE:    76 TIME:   0.125 TIME LEFT: 11.84M  GRAD.:    11.770 HEAT:  101.3641
 CYCLE:    77 TIME:   0.125 TIME LEFT: 11.84M  GRAD.:    11.221 HEAT:  101.2888
 CYCLE:    78 TIME:   0.117 TIME LEFT: 11.84M  GRAD.:    25.323 HEAT:  101.2991
 CYCLE:    79 TIME:   0.117 TIME LEFT: 11.83M  GRAD.:     6.781 HEAT:  101.1379
 CYCLE:    80 TIME:   0.125 TIME LEFT: 11.83M  GRAD.:     5.722 HEAT:  101.0920
 CYCLE:    81 TIME:   0.125 TIME LEFT: 11.83M  GRAD.:     8.700 HEAT:  100.9781
 CYCLE:    82 TIME:   0.125 TIME LEFT: 11.83M  GRAD.:    10.426 HEAT:  100.8710
 CYCLE:    83 TIME:   0.125 TIME LEFT: 11.83M  GRAD.:     9.412 HEAT:  100.7550
 CYCLE:    84 TIME:   0.117 TIME LEFT: 11.82M  GRAD.:     6.558 HEAT:  100.6701
 CYCLE:    85 TIME:   0.117 TIME LEFT: 11.82M  GRAD.:     6.878 HEAT:  100.5963
 CYCLE:    86 TIME:   0.125 TIME LEFT: 11.82M  GRAD.:     9.973 HEAT:  100.4992
 CYCLE:    87 TIME:   0.125 TIME LEFT: 11.82M  GRAD.:    11.382 HEAT:  100.4316
 CYCLE:    88 TIME:   0.117 TIME LEFT: 11.82M  GRAD.:     6.937 HEAT:  100.3663
 CYCLE:    89 TIME:   0.141 TIME LEFT: 11.81M  GRAD.:     7.228 HEAT:  100.2857
 CYCLE:    90 TIME:   0.133 TIME LEFT: 11.81M  GRAD.:    12.903 HEAT:  100.2389
 CYCLE:    91 TIME:   0.133 TIME LEFT: 11.81M  GRAD.:     9.282 HEAT:  100.1606
 CYCLE:    92 TIME:   0.125 TIME LEFT: 11.81M  GRAD.:    11.514 HEAT:  100.0702
 CYCLE:    93 TIME:   0.133 TIME LEFT: 11.80M  GRAD.:     8.178 HEAT:  99.99083
 CYCLE:    94 TIME:   0.125 TIME LEFT: 11.80M  GRAD.:     8.906 HEAT:  99.91667
 CYCLE:    95 TIME:   0.133 TIME LEFT: 11.80M  GRAD.:     9.554 HEAT:  99.78425
 CYCLE:    96 TIME:   0.117 TIME LEFT: 11.80M  GRAD.:    12.123 HEAT:  99.68327
 CYCLE:    97 TIME:   0.125 TIME LEFT: 11.80M  GRAD.:     8.610 HEAT:  99.55945
 CYCLE:    98 TIME:   0.125 TIME LEFT: 11.79M  GRAD.:     9.375 HEAT:  99.47179
 CYCLE:    99 TIME:   0.117 TIME LEFT: 11.79M  GRAD.:     8.309 HEAT:  99.39476
 CYCLE:   100 TIME:   0.125 TIME LEFT: 11.79M  GRAD.:     9.414 HEAT:  99.29548
 CYCLE:   101 TIME:   0.117 TIME LEFT: 11.79M  GRAD.:    11.298 HEAT:  99.19352
 CYCLE:   102 TIME:   0.117 TIME LEFT: 11.79M  GRAD.:     8.552 HEAT:  99.10162
 CYCLE:   103 TIME:   0.125 TIME LEFT: 11.78M  GRAD.:     9.551 HEAT:  98.98430
 CYCLE:   104 TIME:   0.117 TIME LEFT: 11.78M  GRAD.:    10.284 HEAT:  98.92253
 CYCLE:   105 TIME:   0.117 TIME LEFT: 11.78M  GRAD.:     7.731 HEAT:  98.85841
 CYCLE:   106 TIME:   0.117 TIME LEFT: 11.78M  GRAD.:    12.936 HEAT:  98.80382
 CYCLE:   107 TIME:   0.125 TIME LEFT: 11.78M  GRAD.:     6.130 HEAT:  98.73482
 CYCLE:   108 TIME:   0.117 TIME LEFT: 11.77M  GRAD.:     5.092 HEAT:  98.69842
 CYCLE:   109 TIME:   0.117 TIME LEFT: 11.77M  GRAD.:     7.265 HEAT:  98.63206
 CYCLE:   110 TIME:   0.117 TIME LEFT: 11.77M  GRAD.:    14.017 HEAT:  98.60069
 CYCLE:   111 TIME:   0.125 TIME LEFT: 11.77M  GRAD.:     7.075 HEAT:  98.55086
 CYCLE:   112 TIME:   0.125 TIME LEFT: 11.77M  GRAD.:     6.445 HEAT:  98.49426
 CYCLE:   113 TIME:   0.133 TIME LEFT: 11.76M  GRAD.:     8.892 HEAT:  98.44351
 CYCLE:   114 TIME:   0.117 TIME LEFT: 11.76M  GRAD.:    12.469 HEAT:  98.36050
 CYCLE:   115 TIME:   0.117 TIME LEFT: 11.76M  GRAD.:    23.388 HEAT:  98.33563
 CYCLE:   116 TIME:   0.117 TIME LEFT: 11.76M  GRAD.:    12.285 HEAT:  98.24750
 CYCLE:   117 TIME:   0.109 TIME LEFT: 11.76M  GRAD.:     6.665 HEAT:  98.17671
 CYCLE:   118 TIME:   0.102 TIME LEFT: 11.75M  GRAD.:    11.747 HEAT:  98.13893
 CYCLE:   119 TIME:   0.117 TIME LEFT: 11.75M  GRAD.:     7.940 HEAT:  98.08059
 CYCLE:   120 TIME:   0.117 TIME LEFT: 11.75M  GRAD.:     6.509 HEAT:  98.01610
 CYCLE:   121 TIME:   0.125 TIME LEFT: 11.75M  GRAD.:     6.466 HEAT:  97.96461
 CYCLE:   122 TIME:   0.125 TIME LEFT: 11.75M  GRAD.:     5.613 HEAT:  97.92795
 CYCLE:   123 TIME:   0.125 TIME LEFT: 11.74M  GRAD.:     5.615 HEAT:  97.87832
 CYCLE:   124 TIME:   0.109 TIME LEFT: 11.74M  GRAD.:    12.145 HEAT:  97.83701
 CYCLE:   125 TIME:   0.109 TIME LEFT: 11.74M  GRAD.:     6.025 HEAT:  97.78834
 CYCLE:   126 TIME:   0.133 TIME LEFT: 11.74M  GRAD.:     6.894 HEAT:  97.73516
 CYCLE:   127 TIME:   0.117 TIME LEFT: 11.74M  GRAD.:     7.074 HEAT:  97.69048
 CYCLE:   128 TIME:   0.125 TIME LEFT: 11.73M  GRAD.:     6.502 HEAT:  97.62179
 CYCLE:   129 TIME:   0.117 TIME LEFT: 11.73M  GRAD.:    12.212 HEAT:  97.57250
 CYCLE:   130 TIME:   0.117 TIME LEFT: 11.73M  GRAD.:     4.894 HEAT:  97.52619

 -------------------------------------------------------------------------------
 PM6 NOSYM T=12M GNORM=5.000000 CHARGE=1 AUX LOCALIZE
   MOPAC run
   ready to go?


     HERBERTS TEST WAS SATISFIED IN BFGS                      
     SCF FIELD WAS ACHIEVED                                   


                              PM6 CALCULATION
                                                       MOPAC2016 (Version: 17.165L)
                                                       Tue Oct 31 21:12:30 2017
                                                       No. of days remaining = 226




          FINAL HEAT OF FORMATION =         97.52610 KCAL/MOL =     408.04919 KJ/MOL


          TOTAL ENERGY            =      -3504.22803 EV
          ELECTRONIC ENERGY       =     -31854.04140 EV  POINT GROUP:     C1  
          CORE-CORE REPULSION     =      28349.81336 EV
          COSMO AREA              =        359.57 SQUARE ANGSTROMS
          COSMO VOLUME            =        490.02 CUBIC ANGSTROMS

          GRADIENT NORM           =          4.89431
          IONIZATION POTENTIAL    =         10.973361 EV
          HOMO LUMO ENERGIES (EV) =        -10.973 -4.401
          NO. OF FILLED LEVELS    =         64
          MOLECULAR WEIGHT        =        403.6941

          MOLECULAR DIMENSIONS (Angstroms)

            Atom       Atom       Distance
            H    24    H    13     9.94608
            H    40    H    32     9.20720
            H     8    H    48     7.53783


          SCF CALCULATIONS        =        131
 
          WALL-CLOCK TIME         =         16.273 SECONDS
          COMPUTATION TIME        =         15.796 SECONDS



       FINAL  POINT  AND  DERIVATIVES

   PARAMETER     ATOM    TYPE            VALUE       GRADIENT
      1          1  C    CARTESIAN X    -0.392448    -0.248409  KCAL/ANGSTROM
      2          1  C    CARTESIAN Y     0.386436     0.086370  KCAL/ANGSTROM
      3          1  C    CARTESIAN Z    -2.976746     0.474372  KCAL/ANGSTROM
      4          2  C    CARTESIAN X     0.672762    -0.060565  KCAL/ANGSTROM
      5          2  C    CARTESIAN Y     0.388496     0.382122  KCAL/ANGSTROM
      6          2  C    CARTESIAN Z    -2.082393    -0.527982  KCAL/ANGSTROM
      7          3  C    CARTESIAN X    -1.627305     0.377201  KCAL/ANGSTROM
      8          3  C    CARTESIAN Y    -0.089657     0.095748  KCAL/ANGSTROM
      9          3  C    CARTESIAN Z    -2.529701    -0.573484  KCAL/ANGSTROM
     10          4  H    CARTESIAN X    -0.291635     0.086566  KCAL/ANGSTROM
     11          4  H    CARTESIAN Y     0.732536    -0.271423  KCAL/ANGSTROM
     12          4  H    CARTESIAN Z    -4.004183    -0.400615  KCAL/ANGSTROM
     13          5  C    CARTESIAN X    -1.774147    -0.092934  KCAL/ANGSTROM
     14          5  C    CARTESIAN Y    -0.558284    -0.135916  KCAL/ANGSTROM
     15          5  C    CARTESIAN Z    -1.215655     0.924912  KCAL/ANGSTROM
     16          6  H    CARTESIAN X    -2.483664    -0.651174  KCAL/ANGSTROM
     17          6  H    CARTESIAN Y    -0.095949     0.067820  KCAL/ANGSTROM
     18          6  H    CARTESIAN Z    -3.206947    -0.067224  KCAL/ANGSTROM
     19          7  C    CARTESIAN X    -0.699236    -0.178298  KCAL/ANGSTROM
     20          7  C    CARTESIAN Y    -0.563282     0.603008  KCAL/ANGSTROM
     21          7  C    CARTESIAN Z    -0.332629     0.208606  KCAL/ANGSTROM
     22          8  H    CARTESIAN X    -2.748602    -0.217920  KCAL/ANGSTROM
     23          8  H    CARTESIAN Y    -0.926997    -0.184774  KCAL/ANGSTROM
     24          8  H    CARTESIAN Z    -0.881845     0.079033  KCAL/ANGSTROM
     25          9  C    CARTESIAN X     0.567516    -0.602000  KCAL/ANGSTROM
     26          9  C    CARTESIAN Y    -0.086909     0.191250  KCAL/ANGSTROM
     27          9  C    CARTESIAN Z    -0.739975     0.860490  KCAL/ANGSTROM
     28         10  H    CARTESIAN X    -0.822357     0.018610  KCAL/ANGSTROM
     29         10  H    CARTESIAN Y    -0.946510    -1.136493  KCAL/ANGSTROM
     30         10  H    CARTESIAN Z     0.685600     0.752999  KCAL/ANGSTROM
     31         11  O    CARTESIAN X     1.988354     0.336826  KCAL/ANGSTROM
     32         11  O    CARTESIAN Y     0.857898     0.233016  KCAL/ANGSTROM
     33         11  O    CARTESIAN Z    -2.446492    -0.295147  KCAL/ANGSTROM
     34         12  C    CARTESIAN X     2.121961     0.407571  KCAL/ANGSTROM
     35         12  C    CARTESIAN Y     1.521375     0.266656  KCAL/ANGSTROM
     36         12  C    CARTESIAN Z    -3.741815    -0.579638  KCAL/ANGSTROM
     37         13  H    CARTESIAN X     1.955861     0.075701  KCAL/ANGSTROM
     38         13  H    CARTESIAN Y     0.765181    -0.223298  KCAL/ANGSTROM
     39         13  H    CARTESIAN Z    -4.523484    -0.446718  KCAL/ANGSTROM
     40         14  H    CARTESIAN X     3.154274     0.712101  KCAL/ANGSTROM
     41         14  H    CARTESIAN Y     1.904963     0.149018  KCAL/ANGSTROM
     42         14  H    CARTESIAN Z    -3.769890     0.038708  KCAL/ANGSTROM
     43         15  H    CARTESIAN X     1.395952    -0.478480  KCAL/ANGSTROM
     44         15  H    CARTESIAN Y     2.347036     0.231218  KCAL/ANGSTROM
     45         15  H    CARTESIAN Z    -3.797340     0.297645  KCAL/ANGSTROM
     46         16  N    CARTESIAN X     1.708322    -0.212834  KCAL/ANGSTROM
     47         16  N    CARTESIAN Y    -0.020817     0.505914  KCAL/ANGSTROM
     48         16  N    CARTESIAN Z     0.072751     0.004921  KCAL/ANGSTROM
     49         17  C    CARTESIAN X     1.737324    -0.572716  KCAL/ANGSTROM
     50         17  C    CARTESIAN Y    -0.587008    -0.057944  KCAL/ANGSTROM
     51         17  C    CARTESIAN Z     1.396041     0.106896  KCAL/ANGSTROM
     52         18  C    CARTESIAN X     2.087837     0.297331  KCAL/ANGSTROM
     53         18  C    CARTESIAN Y     0.286345    -0.405317  KCAL/ANGSTROM
     54         18  C    CARTESIAN Z     2.461751     0.151977  KCAL/ANGSTROM
     55         19  C    CARTESIAN X     1.517551    -0.138113  KCAL/ANGSTROM
     56         19  C    CARTESIAN Y    -1.962465    -0.167395  KCAL/ANGSTROM
     57         19  C    CARTESIAN Z     1.639248     0.596324  KCAL/ANGSTROM
     58         20  C    CARTESIAN X     1.992419     0.320950  KCAL/ANGSTROM
     59         20  C    CARTESIAN Y    -0.187633     0.834420  KCAL/ANGSTROM
     60         20  C    CARTESIAN Z     3.774147    -0.583423  KCAL/ANGSTROM
     61         21  C    CARTESIAN X     1.470394     0.289246  KCAL/ANGSTROM
     62         21  C    CARTESIAN Y    -2.403356     0.628242  KCAL/ANGSTROM
     63         21  C    CARTESIAN Z     2.970737     0.021362  KCAL/ANGSTROM
     64         22  C    CARTESIAN X     1.658444    -0.923811  KCAL/ANGSTROM
     65         22  C    CARTESIAN Y    -1.519511     0.294785  KCAL/ANGSTROM
     66         22  C    CARTESIAN Z     4.030530     0.264064  KCAL/ANGSTROM
     67         23  H    CARTESIAN X     1.291948     0.696917  KCAL/ANGSTROM
     68         23  H    CARTESIAN Y    -3.460544     0.478332  KCAL/ANGSTROM
     69         23  H    CARTESIAN Z     3.178198    -0.034080  KCAL/ANGSTROM
     70         24  H    CARTESIAN X     1.575055     0.090291  KCAL/ANGSTROM
     71         24  H    CARTESIAN Y    -1.873932    -0.172304  KCAL/ANGSTROM
     72         24  H    CARTESIAN Z     5.058511    -0.310094  KCAL/ANGSTROM
     73         25  H    CARTESIAN X     2.182441    -0.311377  KCAL/ANGSTROM
     74         25  H    CARTESIAN Y     0.478422    -0.556746  KCAL/ANGSTROM
     75         25  H    CARTESIAN Z     4.618417     0.443377  KCAL/ANGSTROM
     76         26  C    CARTESIAN X     2.573261    -0.158910  KCAL/ANGSTROM
     77         26  C    CARTESIAN Y     1.711270    -0.050327  KCAL/ANGSTROM
     78         26  C    CARTESIAN Z     2.225159    -0.044717  KCAL/ANGSTROM
     79         27  C    CARTESIAN X     1.396000     0.444021  KCAL/ANGSTROM
     80         27  C    CARTESIAN Y     2.687086    -0.031158  KCAL/ANGSTROM
     81         27  C    CARTESIAN Z     2.207481     0.446377  KCAL/ANGSTROM
     82         28  H    CARTESIAN X     0.649519     0.461991  KCAL/ANGSTROM
     83         28  H    CARTESIAN Y     2.441027     0.704302  KCAL/ANGSTROM
     84         28  H    CARTESIAN Z     1.443293     0.004015  KCAL/ANGSTROM
     85         29  H    CARTESIAN X     1.716713    -0.006977  KCAL/ANGSTROM
     86         29  H    CARTESIAN Y     3.722588     0.082667  KCAL/ANGSTROM
     87         29  H    CARTESIAN Z     2.037225    -0.040837  KCAL/ANGSTROM
     88         30  H    CARTESIAN X     0.865815     0.492206  KCAL/ANGSTROM
     89         30  H    CARTESIAN Y     2.676298    -0.101013  KCAL/ANGSTROM
     90         30  H    CARTESIAN Z     3.171538    -0.201944  KCAL/ANGSTROM
     91         31  C    CARTESIAN X     3.617420    -0.261582  KCAL/ANGSTROM
     92         31  C    CARTESIAN Y     2.142113    -0.028890  KCAL/ANGSTROM
     93         31  C    CARTESIAN Z     3.260564    -0.677504  KCAL/ANGSTROM
     94         32  H    CARTESIAN X     4.016419    -0.528086  KCAL/ANGSTROM
     95         32  H    CARTESIAN Y     3.141306     0.339439  KCAL/ANGSTROM
     96         32  H    CARTESIAN Z     3.045335    -0.039491  KCAL/ANGSTROM
     97         33  H    CARTESIAN X     4.461178    -0.355747  KCAL/ANGSTROM
     98         33  H    CARTESIAN Y     1.441598    -0.441742  KCAL/ANGSTROM
     99         33  H    CARTESIAN Z     3.308618    -0.251927  KCAL/ANGSTROM
    100         34  H    CARTESIAN X     3.188723    -0.287931  KCAL/ANGSTROM
    101         34  H    CARTESIAN Y     2.193322    -0.394267  KCAL/ANGSTROM
    102         34  H    CARTESIAN Z     4.271642    -0.743955  KCAL/ANGSTROM
    103         35  H    CARTESIAN X     3.142620    -0.640824  KCAL/ANGSTROM
    104         35  H    CARTESIAN Y     1.803018    -0.207530  KCAL/ANGSTROM
    105         35  H    CARTESIAN Z     1.210567     0.710656  KCAL/ANGSTROM
    106         36  C    CARTESIAN X     0.150915     0.176610  KCAL/ANGSTROM
    107         36  C    CARTESIAN Y    -3.850277    -0.068955  KCAL/ANGSTROM
    108         36  C    CARTESIAN Z     0.658011     0.080093  KCAL/ANGSTROM
    109         37  C    CARTESIAN X     1.414797     0.143032  KCAL/ANGSTROM
    110         37  C    CARTESIAN Y    -2.993468    -0.292124  KCAL/ANGSTROM
    111         37  C    CARTESIAN Z     0.525818    -0.167988  KCAL/ANGSTROM
    112         38  H    CARTESIAN X    -0.759669    -0.035111  KCAL/ANGSTROM
    113         38  H    CARTESIAN Y    -3.247543    -0.050251  KCAL/ANGSTROM
    114         38  H    CARTESIAN Z     0.576989    -0.280549  KCAL/ANGSTROM
    115         39  H    CARTESIAN X     0.107534     0.036529  KCAL/ANGSTROM
    116         39  H    CARTESIAN Y    -4.387016    -0.351053  KCAL/ANGSTROM
    117         39  H    CARTESIAN Z     1.613939     0.223949  KCAL/ANGSTROM
    118         40  H    CARTESIAN X     0.109337     0.119489  KCAL/ANGSTROM
    119         40  H    CARTESIAN Y    -4.614631    -0.432321  KCAL/ANGSTROM
    120         40  H    CARTESIAN Z    -0.128945     0.087447  KCAL/ANGSTROM
    121         41  C    CARTESIAN X     2.673803     0.149595  KCAL/ANGSTROM
    122         41  C    CARTESIAN Y    -3.874478    -0.102887  KCAL/ANGSTROM
    123         41  C    CARTESIAN Z     0.538241    -0.134755  KCAL/ANGSTROM
    124         42  H    CARTESIAN X     1.377328     0.622980  KCAL/ANGSTROM
    125         42  H    CARTESIAN Y    -2.482370     0.200334  KCAL/ANGSTROM
    126         42  H    CARTESIAN Z    -0.469051    -0.087951  KCAL/ANGSTROM
    127         43  H    CARTESIAN X     2.721938    -0.360872  KCAL/ANGSTROM
    128         43  H    CARTESIAN Y    -4.511382    -0.655493  KCAL/ANGSTROM
    129         43  H    CARTESIAN Z     1.430045    -0.277046  KCAL/ANGSTROM
    130         44  H    CARTESIAN X     3.587832     0.355196  KCAL/ANGSTROM
    131         44  H    CARTESIAN Y    -3.269984     0.740067  KCAL/ANGSTROM
    132         44  H    CARTESIAN Z     0.512928    -0.039345  KCAL/ANGSTROM
    133         45  H    CARTESIAN X     2.691670    -0.142832  KCAL/ANGSTROM
    134         45  H    CARTESIAN Y    -4.549596    -0.579980  KCAL/ANGSTROM
    135         45  H    CARTESIAN Z    -0.326114     0.014977  KCAL/ANGSTROM
    136         46 Zr    CARTESIAN X     3.414327     0.528059  KCAL/ANGSTROM
    137         46 Zr    CARTESIAN Y     1.065127    -0.593223  KCAL/ANGSTROM
    138         46 Zr    CARTESIAN Z    -0.719425     0.259401  KCAL/ANGSTROM
    139         47  C    CARTESIAN X     5.249747    -0.214133  KCAL/ANGSTROM
    140         47  C    CARTESIAN Y    -0.071938    -0.318269  KCAL/ANGSTROM
    141         47  C    CARTESIAN Z    -0.093672     0.286598  KCAL/ANGSTROM
    142         48  H    CARTESIAN X     5.727177    -0.178896  KCAL/ANGSTROM
    143         48  H    CARTESIAN Y    -0.650515     0.052627  KCAL/ANGSTROM
    144         48  H    CARTESIAN Z    -0.890689    -0.278591  KCAL/ANGSTROM
    145         49  H    CARTESIAN X     4.905357    -0.247130  KCAL/ANGSTROM
    146         49  H    CARTESIAN Y    -0.781578     0.359211  KCAL/ANGSTROM
    147         49  H    CARTESIAN Z     0.675733    -0.086504  KCAL/ANGSTROM
    148         50  H    CARTESIAN X     6.019663    -0.194787  KCAL/ANGSTROM
    149         50  H    CARTESIAN Y     0.570233    -0.418251  KCAL/ANGSTROM
    150         50  H    CARTESIAN Z     0.348116     0.357739  KCAL/ANGSTROM
    151         51  C    CARTESIAN X     3.996718     0.107437  KCAL/ANGSTROM
    152         51  C    CARTESIAN Y     3.180725     0.088742  KCAL/ANGSTROM
    153         51  C    CARTESIAN Z    -1.245095     0.376895  KCAL/ANGSTROM
    154         52  H    CARTESIAN X     3.299783     0.568374  KCAL/ANGSTROM
    155         52  H    CARTESIAN Y     3.915061     0.333652  KCAL/ANGSTROM
    156         52  H    CARTESIAN Z    -1.641656    -0.029896  KCAL/ANGSTROM
    157         53  H    CARTESIAN X     4.777849     0.489950  KCAL/ANGSTROM
    158         53  H    CARTESIAN Y     2.981733     0.256332  KCAL/ANGSTROM
    159         53  H    CARTESIAN Z    -2.004931    -0.261600  KCAL/ANGSTROM
    160         54  H    CARTESIAN X     4.498681    -0.102332  KCAL/ANGSTROM
    161         54  H    CARTESIAN Y     3.652300     0.224051  KCAL/ANGSTROM
    162         54  H    CARTESIAN Z    -0.389467    -0.610829  KCAL/ANGSTROM




   ATOM   CHEMICAL          X               Y               Z
  NUMBER   SYMBOL      (ANGSTROMS)     (ANGSTROMS)     (ANGSTROMS)
 
     1       C         -0.39244776  *   0.38643609  *  -2.97674638  *
     2       C          0.67276205  *   0.38849603  *  -2.08239297  *
     3       C         -1.62730499  *  -0.08965651  *  -2.52970057  *
     4       H         -0.29163498  *   0.73253640  *  -4.00418310  *
     5       C         -1.77414730  *  -0.55828400  *  -1.21565525  *
     6       H         -2.48366367  *  -0.09594855  *  -3.20694748  *
     7       C         -0.69923625  *  -0.56328174  *  -0.33262861  *
     8       H         -2.74860153  *  -0.92699693  *  -0.88184507  *
     9       C          0.56751613  *  -0.08690888  *  -0.73997481  *
    10       H         -0.82235653  *  -0.94650974  *   0.68559963  *
    11       O          1.98835414  *   0.85789807  *  -2.44649247  *
    12       C          2.12196073  *   1.52137515  *  -3.74181455  *
    13       H          1.95586073  *   0.76518090  *  -4.52348370  *
    14       H          3.15427414  *   1.90496283  *  -3.76989045  *
    15       H          1.39595240  *   2.34703643  *  -3.79734043  *
    16       N          1.70832176  *  -0.02081710  *   0.07275142  *
    17       C          1.73732429  *  -0.58700802  *   1.39604075  *
    18       C          2.08783657  *   0.28634472  *   2.46175150  *
    19       C          1.51755137  *  -1.96246451  *   1.63924824  *
    20       C          1.99241878  *  -0.18763299  *   3.77414737  *
    21       C          1.47039411  *  -2.40335593  *   2.97073657  *
    22       C          1.65844385  *  -1.51951105  *   4.03052951  *
    23       H          1.29194755  *  -3.46054447  *   3.17819761  *
    24       H          1.57505533  *  -1.87393161  *   5.05851127  *
    25       H          2.18244098  *   0.47842236  *   4.61841733  *
    26       C          2.57326054  *   1.71127019  *   2.22515862  *
    27       C          1.39599982  *   2.68708617  *   2.20748121  *
    28       H          0.64951851  *   2.44102738  *   1.44329312  *
    29       H          1.71671294  *   3.72258796  *   2.03722547  *
    30       H          0.86581505  *   2.67629826  *   3.17153789  *
    31       C          3.61741989  *   2.14211339  *   3.26056403  *
    32       H          4.01641866  *   3.14130625  *   3.04533486  *
    33       H          4.46117789  *   1.44159827  *   3.30861772  *
    34       H          3.18872284  *   2.19332156  *   4.27164241  *
    35       H          3.14261979  *   1.80301766  *   1.21056715  *
    36       C          0.15091537  *  -3.85027671  *   0.65801150  *
    37       C          1.41479733  *  -2.99346779  *   0.52581815  *
    38       H         -0.75966860  *  -3.24754298  *   0.57698893  *
    39       H          0.10753383  *  -4.38701636  *   1.61393902  *
    40       H          0.10933737  *  -4.61463060  *  -0.12894508  *
    41       C          2.67380306  *  -3.87447759  *   0.53824093  *
    42       H          1.37732825  *  -2.48236991  *  -0.46905067  *
    43       H          2.72193769  *  -4.51138229  *   1.43004484  *
    44       H          3.58783183  *  -3.26998421  *   0.51292808  *
    45       H          2.69166988  *  -4.54959559  *  -0.32611420  *
    46      Zr          3.41432678  *   1.06512705  *  -0.71942451  *
    47       C          5.24974724  *  -0.07193782  *  -0.09367181  *
    48       H          5.72717701  *  -0.65051534  *  -0.89068935  *
    49       H          4.90535678  *  -0.78157758  *   0.67573258  *
    50       H          6.01966267  *   0.57023331  *   0.34811640  *
    51       C          3.99671759  *   3.18072530  *  -1.24509535  *
    52       H          3.29978252  *   3.91506063  *  -1.64165622  *
    53       H          4.77784890  *   2.98173323  *  -2.00493113  *
    54       H          4.49868067  *   3.65230021  *  -0.38946697  *

                             CARTESIAN COORDINATES

   1    C       -0.392447762     0.386436091    -2.976746385
   2    C        0.672762051     0.388496027    -2.082392967
   3    C       -1.627304990    -0.089656514    -2.529700569
   4    H       -0.291634985     0.732536397    -4.004183102
   5    C       -1.774147297    -0.558283996    -1.215655247
   6    H       -2.483663672    -0.095948551    -3.206947479
   7    C       -0.699236251    -0.563281744    -0.332628614
   8    H       -2.748601530    -0.926996925    -0.881845068
   9    C        0.567516134    -0.086908879    -0.739974812
  10    H       -0.822356531    -0.946509742     0.685599634
  11    O        1.988354139     0.857898070    -2.446492467
  12    C        2.121960729     1.521375154    -3.741814550
  13    H        1.955860726     0.765180903    -4.523483698
  14    H        3.154274145     1.904962830    -3.769890453
  15    H        1.395952405     2.347036432    -3.797340429
  16    N        1.708321763    -0.020817101     0.072751425
  17    C        1.737324294    -0.587008024     1.396040750
  18    C        2.087836572     0.286344719     2.461751499
  19    C        1.517551366    -1.962464505     1.639248235
  20    C        1.992418780    -0.187632993     3.774147371
  21    C        1.470394110    -2.403355926     2.970736572
  22    C        1.658443853    -1.519511047     4.030529515
  23    H        1.291947546    -3.460544474     3.178197610
  24    H        1.575055328    -1.873931607     5.058511274
  25    H        2.182440983     0.478422363     4.618417329
  26    C        2.573260538     1.711270189     2.225158624
  27    C        1.395999818     2.687086169     2.207481211
  28    H        0.649518506     2.441027385     1.443293121
  29    H        1.716712937     3.722587956     2.037225468
  30    H        0.865815053     2.676298260     3.171537892
  31    C        3.617419888     2.142113394     3.260564033
  32    H        4.016418658     3.141306254     3.045334859
  33    H        4.461177888     1.441598272     3.308617722
  34    H        3.188722838     2.193321560     4.271642407
  35    H        3.142619792     1.803017663     1.210567150
  36    C        0.150915370    -3.850276712     0.658011498
  37    C        1.414797327    -2.993467787     0.525818152
  38    H       -0.759668605    -3.247542981     0.576988929
  39    H        0.107533833    -4.387016364     1.613939016
  40    H        0.109337365    -4.614630604    -0.128945078
  41    C        2.673803059    -3.874477586     0.538240929
  42    H        1.377328250    -2.482369910    -0.469050673
  43    H        2.721937691    -4.511382288     1.430044838
  44    H        3.587831829    -3.269984208     0.512928075
  45    H        2.691669879    -4.549595594    -0.326114201
  46   Zr        3.414326783     1.065127046    -0.719424509
  47    C        5.249747245    -0.071937819    -0.093671805
  48    H        5.727177009    -0.650515344    -0.890689350
  49    H        4.905356776    -0.781577581     0.675732584
  50    H        6.019662670     0.570233308     0.348116399
  51    C        3.996717594     3.180725303    -1.245095347
  52    H        3.299782524     3.915060634    -1.641656222
  53    H        4.777848897     2.981733227    -2.004931126
  54    H        4.498680674     3.652300206    -0.389466969


           Empirical Formula: C21 H30 N O Zr  =    54 atoms



      MOLECULAR POINT GROUP   :   C1  


                  EIGENVALUES  
 -34.72546 -34.35300 -32.79200 -32.17716 -31.66608 -30.50212 -29.85356 -28.94633
 -28.32798 -27.57170 -27.16261 -26.98815 -26.58184 -26.36218 -25.80356 -24.97927
 -24.74638 -24.40580 -23.23867 -22.81990 -21.66097 -21.21150 -20.81641 -20.24404
 -20.13870 -19.51672 -18.89615 -18.50009 -18.25222 -18.07586 -17.95348 -17.61892
 -17.52110 -17.16909 -17.06071 -16.98935 -16.79833 -16.58579 -16.32619 -16.19780
 -16.05543 -15.95953 -15.81287 -15.65857 -15.60690 -15.55309 -15.48297 -15.35117
 -15.32206 -15.19894 -15.04875 -15.00985 -14.80066 -14.52024 -14.32663 -14.24006
 -13.82300 -13.65608 -13.07286 -12.71569 -12.33510 -12.04308 -11.92288 -10.97336
  -4.40124  -3.13410  -2.84399  -2.74722  -2.46473  -2.29708  -2.08527  -1.75995
  -1.39017  -1.21835  -0.76819  -0.52679  -0.36312  -0.32599   0.12508   0.62751
   0.86968   0.98229   1.18823   1.26201   1.35000   1.44902   1.48603   1.49870
   1.61754   1.79297   1.86956   1.91963   1.97344   2.08071   2.19110   2.33468
   2.37882   2.48368   2.58001   2.63769   2.69199   2.79304   2.92271   3.01013
   3.04531   3.08265   3.09314   3.15414   3.16449   3.26325   3.31884   3.41016
   3.45637   3.49998   3.50737   3.64929   3.70416   3.74234   3.76303   3.77144
   3.79337   3.86559   3.90863   3.92243   3.98932   4.07671   4.17072   4.68386
   4.77775   5.00685   5.21629


              NET ATOMIC CHARGES AND DIPOLE CONTRIBUTIONS

  ATOM NO.   TYPE          CHARGE      No. of ELECS.   s-Pop       p-Pop       d-Pop       
    1          C          -0.159146        4.1591     1.10319     3.05596
    2          C           0.053214        3.9468     1.09546     2.85133
    3          C          -0.179304        4.1793     1.10381     3.07549
    4          H           0.166004        0.8340     0.83400
    5          C          -0.057249        4.0572     1.10836     2.94889
    6          H           0.171854        0.8281     0.82815
    7          C          -0.259675        4.2597     1.10922     3.15046
    8          H           0.162833        0.8372     0.83717
    9          C           0.196182        3.8038     1.07630     2.72751
   10          H           0.189807        0.8102     0.81019
   11          O          -0.307135        6.3071     1.69690     4.61023
   12          C          -0.160671        4.1607     1.11849     3.04218
   13          H           0.167759        0.8322     0.83224
   14          H           0.171086        0.8289     0.82891
   15          H           0.171657        0.8283     0.82834
   16          N          -0.436929        5.4369     1.53315     3.90378
   17          C           0.109822        3.8902     1.08333     2.80685
   18          C          -0.114405        4.1144     1.10610     3.00830
   19          C          -0.058510        4.0585     1.11047     2.94804
   20          C          -0.128296        4.1283     1.10623     3.02207
   21          C          -0.129861        4.1299     1.10976     3.02010
   22          C          -0.153084        4.1531     1.10764     3.04544
   23          H           0.162932        0.8371     0.83707
   24          H           0.162502        0.8375     0.83750
   25          H           0.158287        0.8417     0.84171
   26          C           0.141841        3.8582     1.07112     2.78704
   27          C          -0.520929        4.5209     1.09113     3.42980
   28          H           0.167900        0.8321     0.83210
   29          H           0.166735        0.8333     0.83326
   30          H           0.180333        0.8197     0.81967
   31          C          -0.525577        4.5256     1.09332     3.43226
   32          H           0.167518        0.8325     0.83248
   33          H           0.171018        0.8290     0.82898
   34          H           0.176874        0.8231     0.82313
   35          H           0.076164        0.9238     0.92384
   36          C          -0.493913        4.4939     1.08822     3.40570
   37          C           0.008934        3.9911     1.07580     2.91527
   38          H           0.152427        0.8476     0.84757
   39          H           0.159572        0.8404     0.84043
   40          H           0.161099        0.8389     0.83890
   41          C          -0.492265        4.4923     1.08920     3.40307
   42          H           0.122767        0.8772     0.87723
   43          H           0.161373        0.8386     0.83863
   44          H           0.152514        0.8475     0.84749
   45          H           0.157672        0.8423     0.84233
   46         Zr           1.472851        2.5271     0.26639     0.93999     1.32078
   47          C          -0.866913        4.8669     1.11514     3.75177
   48          H           0.176009        0.8240     0.82399
   49          H           0.183976        0.8160     0.81602
   50          H           0.180333        0.8197     0.81967
   51          C          -0.860892        4.8609     1.11670     3.74419
   52          H           0.170818        0.8292     0.82918
   53          H           0.172015        0.8280     0.82798
   54          H           0.180069        0.8199     0.81993
 DIPOLE           X         Y         Z       TOTAL
 POINT-CHG.    -0.018     3.282    -4.658     5.698
 HYBRID         1.762     0.220    -0.399     1.820
 SUM            1.744     3.503    -5.057     6.394


          ATOMIC ORBITAL ELECTRON POPULATIONS

     Atom    s        px        py        pz      x^2-y^2     xz        z^2       yz        xy
    1  C   1.10319   0.97077   1.03064   1.05456
    2  C   1.09546   0.75684   1.12542   0.96907
    3  C   1.10381   1.02436   1.02645   1.02468
    4  H   0.83400
    5  C   1.10836   1.04241   0.94284   0.96364
    6  H   0.82815
    7  C   1.10922   0.96248   1.09038   1.09760
    8  H   0.83717
    9  C   1.07630   0.89830   0.94094   0.88828
   10  H   0.81019
   11  O   1.69690   1.42464   1.74692   1.43867
   12  C   1.11849   1.16331   1.07182   0.80704
   13  H   0.83224
   14  H   0.82891
   15  H   0.82834
   16  N   1.53315   1.24137   1.49721   1.16520
   17  C   1.08333   1.01810   0.94686   0.84188
   18  C   1.10610   1.05578   0.97209   0.98043
   19  C   1.11047   1.00133   0.95288   0.99383
   20  C   1.10623   0.99303   1.01366   1.01538
   21  C   1.10976   0.98084   1.07153   0.96773
   22  C   1.10764   0.99603   0.98346   1.06595
   23  H   0.83707
   24  H   0.83750
   25  H   0.84171
   26  C   1.07112   0.93379   0.93823   0.91501
   27  C   1.09113   1.10023   1.12267   1.20691
   28  H   0.83210
   29  H   0.83326
   30  H   0.81967
   31  C   1.09332   1.11954   1.17779   1.13493
   32  H   0.83248
   33  H   0.82898
   34  H   0.82313
   35  H   0.92384
   36  C   1.08822   1.07983   1.13659   1.18928
   37  C   1.07580   0.94088   0.95577   1.01861
   38  H   0.84757
   39  H   0.84043
   40  H   0.83890
   41  C   1.08920   1.08158   1.13208   1.18940
   42  H   0.87723
   43  H   0.83863
   44  H   0.84749
   45  H   0.84233
   46 Zr   0.26639   0.33419   0.36343   0.24236   0.31478   0.25623   0.25508   0.19490   0.29978
   47  C   1.11514   1.32033   1.23947   1.19197
   48  H   0.82399
   49  H   0.81602
   50  H   0.81967
   51  C   1.11670   1.21324   1.36136   1.16960
   52  H   0.82918
   53  H   0.82798
   54  H   0.81993

          NUMBER OF ITERATIONS =  39
          LOCALISATION VALUE =  32.451180876

   NUMBER OF CENTERS              (COMPOSITION OF ORBITALS)


    1.3019   O  11 86.69   ZR 46 12.88
    1.8234   O  11 67.08   C   2 31.36
    1.8303   O  11 66.50   C  12 32.26
    2.0706   N  16 54.42   C   9 43.20   ZR 46  1.29
    2.0187   C   2 52.26   C   1 47.15
    2.0541   C   2 51.57   C   9 47.00
    2.0350   N  16 56.75   C  17 41.13   ZR 46  1.25
    2.0405   C   9 51.18   C   7 47.76
    2.0344   C   1 51.10   C   3 48.00
    1.4823   N  16 79.87   ZR 46 19.17
    2.0183   C   7 50.74   C   5 48.78
    2.0372   C  18 49.56   C  17 49.52
    2.0294   C  17 50.93   C  19 48.31
    2.0264   C  18 50.69   C  20 48.64
    2.0141   C   3 50.16   C   5 49.49
    2.0244   C  19 50.02   C  21 49.37
    2.0155   C  22 49.85   C  21 49.77
    2.0172   C  20 50.04   C  22 49.53
    1.9807   C  12 57.78   H  14 41.35
    1.9504   C  12 58.38   H  13 41.46
    1.9461   C  12 58.63   H  15 41.25
    2.0281   C  18 51.15   C  26 48.11
    1.9733   C   1 57.85   H   4 41.49
    2.0162   C  19 53.43   C  37 45.88
    2.3526   H  35 45.92   C  26 45.58   ZR 46  7.98
    2.0233   C  27 50.66   C  26 48.75
    2.0178   C  31 50.82   C  26 48.72
    1.9692   C   5 57.81   H   8 41.67
    1.9566   C   7 59.05   H  10 40.30
    1.9633   C   3 58.25   H   6 41.23
    1.9722   C  20 57.62   H  25 41.84
    1.9670   C  22 57.84   H  24 41.69
    1.9695   C  21 57.83   H  23 41.63
    1.9577   C  31 58.16   H  32 41.53
    1.9585   C  27 58.17   H  28 41.51
    1.9577   C  27 58.14   H  29 41.57
    1.9540   C  31 58.37   H  33 41.36
    2.0179   C  36 51.20   C  37 48.32
    2.0253   C  41 51.19   C  37 48.14
    1.9546   C  31 58.59   H  34 41.03
    1.9520   C  27 58.75   H  30 40.89
    1.9880   C  37 55.91   H  42 43.64
    2.1265   C  51 54.58   H  53 41.33   ZR 46  3.97
    1.9654   C  36 57.46   H  38 42.27
    1.9648   C  41 57.46   H  44 42.29
    1.9638   C  41 57.67   H  45 42.03
    2.0135   C  51 57.03   H  52 41.38   ZR 46  1.50
    1.9583   C  36 57.88   H  39 41.90
    2.0633   C  51 56.28   H  54 40.89   ZR 46  2.68
    1.9620   C  36 57.83   H  40 41.85
    1.9559   C  41 57.99   H  43 41.83
    2.0603   C  47 56.19   H  48 41.11   ZR 46  2.60
    2.0823   C  47 55.98   H  49 40.72   ZR 46  3.18
    2.0557   C  47 56.44   H  50 40.90   ZR 46  2.56
    1.1193   O  11 94.46   ZR 46  3.36
    1.6012   C  51 75.03   ZR 46 24.82
    1.6128   C  47 74.59   ZR 46 25.22
    2.4594   C   2 58.11   C   1 19.15   C   9 17.37   C   5  4.50
    1.5437   N  16 79.62   ZR 46  9.15   C   9  7.25   C  17  1.35
    2.6264   C   7 53.76   C   5 24.89   C   9 16.74   C   1  4.15
    2.7371   C   3 51.13   C   1 27.29   C   5 16.51   C   9  4.69
    2.7205   C  18 50.37   C  20 31.62   C  17 10.81   C  21  4.37   C  19  1.08
             C  22  1.08
    2.8808   C  19 46.50   C  17 33.85   C  21 11.75   C  20  4.73   C  18  1.29

    2.8460   C  22 47.67   C  21 32.48   C  20 12.82   C  17  4.30   C  19  1.57



                     LOCALIZED ORBITALS 






    ROOT NO.    1           2           3           4           5           6

           -26.99557   -25.31538   -25.00762   -24.52460   -24.26896   -24.13483
  
  
  S  C   1   0.01513     0.02439     0.01096    -0.01315     0.39602    -0.02146
 PX  C   1   0.01334     0.01242     0.00629    -0.01669     0.43988    -0.02068
 PY  C   1  -0.01592    -0.00060     0.00651    -0.00182     0.00763    -0.00371
 PZ  C   1   0.01003     0.01899     0.00735    -0.01066     0.34800     0.00636
  
  S  C   2  -0.01623    -0.26325     0.02084     0.01326     0.49532     0.47585
 PX  C   2   0.01908    -0.43790     0.03144    -0.03363    -0.36768     0.02122
 PY  C   2   0.01380    -0.17119    -0.00854    -0.01279     0.02279    -0.15718
 PZ  C   2   0.02168     0.15248     0.02542     0.01178    -0.37617     0.51391
  
  S  C   3  -0.00194    -0.01579    -0.00211    -0.00320    -0.01021    -0.00327
 PX  C   3  -0.00151    -0.02133    -0.00261    -0.00262     0.00255    -0.00109
 PY  C   3   0.00119    -0.00902    -0.00155    -0.00040    -0.00584    -0.00123
 PZ  C   3   0.00229     0.00904     0.00092    -0.00005     0.01896     0.00169
  
  S  H   4  -0.00040     0.00781    -0.00000     0.00548    -0.01569     0.02525
  
  S  C   5  -0.00088    -0.00351     0.00047    -0.01477    -0.00830    -0.00539
 PX  C   5  -0.00301    -0.00107     0.00176    -0.01425    -0.00048    -0.00234
 PY  C   5   0.00822    -0.00189    -0.00388     0.00144    -0.00205    -0.00232
 PZ  C   5   0.00293    -0.00065    -0.00146    -0.01517     0.00606    -0.00421
  
  S  H   6   0.00126     0.00633     0.00110    -0.00172     0.02579     0.00204
  
  S  C   7   0.00225    -0.01417     0.00372     0.02358    -0.00111    -0.01848
 PX  C   7   0.00346    -0.02177     0.00383     0.00306    -0.00067    -0.02053
 PY  C   7  -0.00114    -0.00730     0.00169     0.00630     0.00073    -0.00121
 PZ  C   7  -0.00228     0.00627    -0.00007    -0.01832    -0.00126    -0.01008
  
  S  H   8   0.00046    -0.00285    -0.00036     0.00458     0.00385     0.00235
  
  S  C   9  -0.01245     0.02047    -0.01940    -0.37736    -0.02830     0.41782
 PX  C   9  -0.00472    -0.01018     0.00117    -0.42091    -0.02607     0.08037
 PY  C   9  -0.01472     0.01022     0.00180     0.00029    -0.00779     0.20023
 PZ  C   9  -0.00009    -0.02519     0.01993    -0.33527    -0.00091    -0.49883
  
  S  H  10  -0.00122     0.00647    -0.00171     0.00465     0.00232     0.02450
  
  S  O  11   0.75123    -0.33229    -0.32856     0.01065    -0.00848    -0.01792
 PX  O  11   0.32431     0.72028     0.04969    -0.00969     0.00284     0.00638
 PY  O  11   0.17964     0.18618    -0.33557    -0.00115     0.00154    -0.01119
 PZ  O  11   0.40634    -0.08316     0.66480     0.00312    -0.00607     0.01990
  
  S  C  12  -0.01538     0.01659    -0.21671    -0.00152    -0.00457     0.02112
 PX  C  12   0.00742     0.02190     0.07206     0.00174    -0.00113    -0.00493
 PY  C  12   0.00379    -0.00602     0.23729     0.00404    -0.00157    -0.02527
 PZ  C  12   0.01946     0.02063    -0.46272    -0.00726     0.00170     0.04983
  
  S  H  13   0.01973     0.00343     0.01094     0.00032     0.00220    -0.00094
  
  S  H  14  -0.00931    -0.01981     0.01257     0.00084     0.00406    -0.00373
  
  S  H  15   0.00563     0.00807     0.01136    -0.00015     0.00302     0.00052
  
  S  N  16   0.00043     0.01117    -0.00599    -0.34435     0.01462    -0.02348
 PX  N  16  -0.00012    -0.00530    -0.00244     0.57430    -0.01945     0.01175
 PY  N  16   0.00200     0.00039    -0.00016     0.09933    -0.00611     0.01319
 PZ  N  16   0.00478    -0.00663     0.00080     0.29315    -0.00350    -0.01660
  
  S  C  17   0.00541    -0.00162     0.00355     0.02226    -0.00640     0.02522
 PX  C  17   0.00114     0.00063    -0.00100     0.05694    -0.00215     0.00352
 PY  C  17   0.00337    -0.00114     0.00225     0.01541    -0.00399     0.01555
 PZ  C  17  -0.00652     0.00384    -0.00452    -0.02218     0.01009    -0.03777
  
  S  C  18   0.00027     0.00058     0.00011    -0.01308     0.00161    -0.00314
 PX  C  18   0.00345     0.00031     0.00170    -0.01546     0.00187    -0.00052
 PY  C  18  -0.00082    -0.00062    -0.00012     0.01598    -0.00213     0.00359
 PZ  C  18  -0.00049    -0.00098    -0.00017     0.00990    -0.00140     0.00197
  
  S  C  19  -0.00063     0.00025    -0.00075     0.00520    -0.00000    -0.00112
 PX  C  19   0.00350     0.00073     0.00175    -0.02959     0.00323    -0.00271
 PY  C  19  -0.00175     0.00011    -0.00130     0.00876    -0.00058    -0.00092
 PZ  C  19   0.00017    -0.00028     0.00012    -0.00073     0.00022    -0.00057
  
  S  C  20   0.00028    -0.00052     0.00009     0.00288    -0.00081     0.00229
 PX  C  20  -0.00018    -0.00014     0.00019     0.00303    -0.00049     0.00087
 PY  C  20   0.00019    -0.00024     0.00000     0.00088    -0.00037     0.00123
 PZ  C  20  -0.00008     0.00100    -0.00003    -0.00310     0.00127    -0.00334
  
  S  C  21   0.00041    -0.00024     0.00031    -0.00002    -0.00049     0.00170
 PX  C  21   0.00029    -0.00001     0.00022    -0.00992     0.00070    -0.00060
 PY  C  21   0.00030    -0.00013     0.00015     0.00181    -0.00034     0.00092
 PZ  C  21  -0.00056     0.00048    -0.00044    -0.00002     0.00082    -0.00276
  
  S  C  22   0.00008    -0.00003     0.00009     0.00045    -0.00015     0.00049
 PX  C  22  -0.00254    -0.00049    -0.00121     0.01449    -0.00186     0.00112
 PY  C  22   0.00054     0.00014     0.00032    -0.00293     0.00035    -0.00014
 PZ  C  22  -0.00015    -0.00008    -0.00009    -0.00024     0.00004    -0.00025
  
  S  H  23  -0.00028     0.00011    -0.00019     0.00002     0.00017    -0.00068
  
  S  H  24  -0.00000    -0.00018    -0.00000     0.00001    -0.00017     0.00047
  
  S  H  25   0.00009     0.00027    -0.00001    -0.00227     0.00050    -0.00103
  
  S  C  26   0.00532    -0.00040     0.00118    -0.00401     0.00100     0.00005
 PX  C  26   0.00286    -0.00118     0.00056    -0.00369     0.00021     0.00134
 PY  C  26   0.00015     0.00002     0.00009     0.00098    -0.00041     0.00114
 PZ  C  26  -0.00663     0.00236    -0.00079     0.00445    -0.00045    -0.00220
  
  S  C  27   0.00072     0.00062     0.00016    -0.00048     0.00028    -0.00042
 PX  C  27  -0.00014     0.00015     0.00004    -0.00172     0.00005    -0.00000
 PY  C  27  -0.00004    -0.00031    -0.00001     0.00123    -0.00015     0.00027
 PZ  C  27  -0.00090    -0.00077    -0.00022    -0.00079    -0.00020     0.00048
  
  S  H  28   0.00040     0.00016     0.00009    -0.00116    -0.00001     0.00035
  
  S  H  29  -0.00008     0.00002    -0.00005     0.00025    -0.00006    -0.00004
  
  S  H  30  -0.00025    -0.00073    -0.00019    -0.00096    -0.00014     0.00040
  
  S  C  31  -0.00073    -0.00007    -0.00022     0.00133    -0.00023     0.00001
 PX  C  31   0.00150     0.00028     0.00045    -0.00123     0.00039    -0.00007
 PY  C  31   0.00064     0.00015     0.00014    -0.00061     0.00019    -0.00007
 PZ  C  31   0.00113    -0.00014     0.00021    -0.00137     0.00026     0.00020
  
  S  H  32   0.00000     0.00009    -0.00000    -0.00019     0.00005    -0.00013
  
  S  H  33  -0.00007     0.00002    -0.00003     0.00009    -0.00003     0.00004
  
  S  H  34   0.00028    -0.00043    -0.00006    -0.00095    -0.00000     0.00025
  
  S  H  35   0.00257    -0.00314    -0.00057    -0.00021    -0.00071     0.00344
  
  S  C  36   0.00009    -0.00015     0.00008    -0.00126     0.00004    -0.00034
 PX  C  36   0.00002     0.00017     0.00003    -0.00158     0.00014     0.00055
 PY  C  36   0.00008    -0.00020     0.00007    -0.00122     0.00004    -0.00030
 PZ  C  36   0.00003     0.00002    -0.00001     0.00004     0.00000     0.00008
  
  S  C  37   0.00004     0.00043    -0.00007     0.00233     0.00031    -0.00150
 PX  C  37  -0.00007     0.00000    -0.00001    -0.00108     0.00003     0.00014
 PY  C  37   0.00016     0.00045    -0.00005     0.00023     0.00045    -0.00166
 PZ  C  37  -0.00004    -0.00021     0.00003    -0.00513     0.00031     0.00010
  
  S  H  38  -0.00002     0.00008    -0.00007    -0.00008     0.00004     0.00067
  
  S  H  39   0.00004     0.00006    -0.00000     0.00031     0.00003    -0.00008
  
  S  H  40  -0.00006     0.00004    -0.00003     0.00025     0.00000    -0.00000
  
  S  C  41  -0.00004    -0.00007    -0.00012     0.00083    -0.00015     0.00003
 PX  C  41   0.00065     0.00027     0.00021    -0.00116     0.00032    -0.00010
 PY  C  41  -0.00007    -0.00012    -0.00015     0.00088    -0.00019     0.00010
 PZ  C  41  -0.00007    -0.00002    -0.00001    -0.00002    -0.00003     0.00003
  
  S  H  42   0.00036    -0.00012     0.00005    -0.00675     0.00016     0.00166
  
  S  H  43  -0.00009     0.00003    -0.00001     0.00050    -0.00002    -0.00005
  
  S  H  44   0.00002    -0.00005    -0.00004     0.00021    -0.00006     0.00010
  
  S  H  45   0.00007     0.00004     0.00005    -0.00080     0.00012    -0.00014
  
  S Zr  46   0.15386     0.03476     0.03566     0.04874     0.02541    -0.00683
 PX Zr  46  -0.13540     0.01647    -0.03389     0.00136    -0.00790    -0.03921
 PY Zr  46  -0.00218     0.00100    -0.02291    -0.02483     0.00077    -0.00936
 PZ Zr  46  -0.16773    -0.04244    -0.01602     0.04738    -0.02032    -0.01478
 X2 Zr  46   0.07914    -0.02026     0.02046    -0.02074     0.00436     0.02305
 XZ Zr  46   0.20601     0.01349     0.04811    -0.05995     0.02068     0.02019
 Z2 Zr  46   0.09833     0.07423    -0.01380     0.02529     0.01529    -0.01118
 YZ Zr  46   0.01503     0.00193     0.04052    -0.05124     0.00681     0.00214
 XY Zr  46   0.00392    -0.00877     0.02963     0.01846    -0.00093     0.01133
  
  S  C  47   0.00816     0.00101     0.00038    -0.00171     0.00055     0.00323
 PX  C  47  -0.00183     0.00106     0.00140     0.00425     0.00048    -0.00412
 PY  C  47  -0.00277     0.00037    -0.00260     0.00049    -0.00085     0.00190
 PZ  C  47  -0.00361     0.00052     0.00119    -0.00067     0.00049    -0.00193
  
  S  H  48   0.00512     0.00047     0.00055    -0.00004     0.00011     0.00111
  
  S  H  49  -0.00059    -0.00085     0.00038    -0.00160    -0.00020     0.00107
  
  S  H  50  -0.00352     0.00045    -0.00095     0.00115    -0.00058     0.00012
  
  S  C  51   0.00796    -0.00104     0.00350    -0.00149     0.00023     0.00368
 PX  C  51   0.00281     0.00051    -0.00084     0.00209     0.00068    -0.00191
 PY  C  51  -0.00682     0.00276    -0.00197     0.00608     0.00047    -0.00557
 PZ  C  51   0.00449     0.00036    -0.00283     0.00062    -0.00006     0.00138
  
  S  H  52  -0.00448    -0.00068     0.00103    -0.00061    -0.00065     0.00015
  
  S  H  53   0.00207    -0.00150     0.00207    -0.00328    -0.00004     0.00139
  
  S  H  54   0.00747     0.00208    -0.00159    -0.00005     0.00049     0.00117




    ROOT NO.    7           8           9          10          11          12

           -23.55097   -23.45994   -23.15161   -23.14889   -23.03979   -23.01365
  
  
  S  C   1  -0.00443    -0.00072    -0.42591     0.00347    -0.00898     0.00180
 PX  C   1  -0.00456    -0.00134     0.50271     0.00329     0.00609     0.00183
 PY  C   1   0.00028     0.00136     0.19819    -0.00116     0.00262     0.00185
 PZ  C   1  -0.00235     0.00085    -0.19388     0.00220    -0.00247     0.00212
  
  S  C   2   0.02554    -0.03507     0.02975    -0.02257    -0.00639    -0.00272
 PX  C   2  -0.00494    -0.05569     0.05713    -0.01043    -0.00389     0.00164
 PY  C   2  -0.00593    -0.01722     0.02515    -0.00512     0.00056     0.00687
 PZ  C   2   0.02381     0.00506    -0.03022    -0.01479    -0.00567    -0.00208
  
  S  C   3  -0.00042    -0.01020    -0.40457    -0.00129    -0.01114     0.00035
 PX  C   3   0.00001    -0.00171    -0.50073    -0.00245     0.02149     0.00135
 PY  C   3  -0.00167     0.00113    -0.18936     0.00370     0.00679    -0.00389
 PZ  C   3  -0.00059    -0.00581     0.17244     0.00110    -0.00334    -0.00134
  
  S  H   4   0.00339     0.00343     0.00597    -0.00189     0.00311    -0.00097
  
  S  C   5   0.00234    -0.01099     0.01113    -0.00282     0.41259     0.00117
 PX  C   5   0.00194     0.00849    -0.01971    -0.00098     0.44253     0.00094
 PY  C   5   0.00054     0.00559    -0.00233    -0.00108     0.00235     0.00205
 PZ  C   5   0.00201    -0.01980    -0.00969    -0.00341     0.34894     0.00193
  
  S  H   6   0.00015     0.00407     0.01186     0.00036     0.02653     0.00030
  
  S  C   7  -0.01404     0.39543     0.01013     0.01805     0.42705    -0.00025
 PX  C   7  -0.01251     0.50760    -0.00259     0.01664    -0.43129    -0.00043
 PY  C   7  -0.00144     0.18622     0.00081     0.00115     0.00749     0.00528
 PZ  C   7   0.00450    -0.17005    -0.00548    -0.01303    -0.37281     0.00131
  
  S  H   8  -0.00139     0.02658    -0.02667     0.00188    -0.01310    -0.00026
  
  S  C   9  -0.02408     0.46441     0.00396    -0.00663    -0.01985     0.01855
 PX  C   9  -0.03480    -0.47761     0.00271     0.03033    -0.01917     0.02907
 PY  C   9  -0.02820    -0.19813     0.00221     0.03565     0.00549    -0.01487
 PZ  C   9   0.02147     0.16952    -0.00217    -0.01424    -0.03137     0.00825
  
  S  H  10   0.00247    -0.01106    -0.00392     0.00032    -0.00768    -0.00004
  
  S  O  11   0.00631     0.01656    -0.01687     0.00095     0.00053    -0.00009
 PX  O  11   0.00125    -0.02648     0.02896    -0.00028    -0.00225     0.00239
 PY  O  11   0.00089    -0.00238     0.00600     0.00098    -0.00078     0.00001
 PZ  O  11   0.00244    -0.00452    -0.00119    -0.00190     0.00048     0.00111
  
  S  C  12  -0.00335    -0.00742     0.00112     0.00536    -0.00025     0.00089
 PX  C  12  -0.00021     0.00355    -0.00297     0.00291     0.00004    -0.00014
 PY  C  12   0.00258     0.01058    -0.00632    -0.00065    -0.00002    -0.00084
 PZ  C  12  -0.00567    -0.02000     0.01159     0.00422     0.00002     0.00166
  
  S  H  13   0.00182     0.00007     0.00159    -0.00220     0.00008     0.00002
  
  S  H  14   0.00057     0.00396    -0.00111     0.00033     0.00042    -0.00014
  
  S  H  15   0.00130    -0.00073     0.00217    -0.00143     0.00002     0.00016
  
  S  N  16   0.35864    -0.01041    -0.00110     0.71792     0.01584    -0.02086
 PX  N  16  -0.09905     0.00253     0.00330     0.41798    -0.02212     0.01576
 PY  N  16  -0.29707    -0.00655     0.00116     0.27984    -0.00367     0.01121
 PZ  N  16   0.58377     0.01457     0.00156    -0.17388    -0.01155     0.00400
  
  S  C  17   0.35164    -0.00647     0.00065    -0.00956    -0.00189     0.44697
 PX  C  17  -0.03945     0.00480    -0.00003     0.05166    -0.00215     0.13178
 PY  C  17   0.19548    -0.00344     0.00042     0.01412    -0.00132     0.35609
 PZ  C  17  -0.49792     0.00522    -0.00095    -0.01339     0.00415     0.38898
  
  S  C  18  -0.02067     0.00061    -0.00021    -0.00907     0.00108     0.42660
 PX  C  18   0.00670    -0.00141    -0.00019    -0.01796     0.00074    -0.13522
 PY  C  18   0.02252    -0.00090     0.00020     0.00661    -0.00099    -0.31957
 PZ  C  18  -0.00157    -0.00042     0.00028     0.00933    -0.00111    -0.43952
  
  S  C  19  -0.02286     0.00036     0.00008     0.01147    -0.00000    -0.02210
 PX  C  19   0.00030    -0.00264    -0.00025    -0.02642     0.00365    -0.00135
 PY  C  19  -0.01724     0.00107     0.00011     0.01555    -0.00062    -0.00478
 PZ  C  19  -0.01578     0.00008     0.00000     0.00352     0.00020     0.02483
  
  S  C  20   0.01404    -0.00029     0.00007     0.00222    -0.00040    -0.01258
 PX  C  20   0.00508    -0.00063     0.00013     0.00135     0.00093    -0.00528
 PY  C  20   0.00886    -0.00011    -0.00001    -0.00002    -0.00048    -0.02054
 PZ  C  20  -0.01830     0.00051    -0.00011    -0.00307     0.00062    -0.00300
  
  S  C  21   0.01463    -0.00007     0.00003    -0.00142    -0.00035    -0.00454
 PX  C  21   0.00382    -0.00085    -0.00010    -0.00854    -0.00089    -0.00649
 PY  C  21   0.00344     0.00026     0.00004     0.00238    -0.00007     0.00101
 PZ  C  21  -0.02111     0.00018    -0.00005     0.00159     0.00058     0.00411
  
  S  C  22   0.00291    -0.00014     0.00001    -0.00049    -0.00005    -0.00668
 PX  C  22  -0.00285     0.00136     0.00016     0.01445    -0.00114     0.00355
 PY  C  22   0.00155    -0.00041    -0.00003    -0.00358     0.00024    -0.00666
 PZ  C  22  -0.00161     0.00008    -0.00000     0.00054     0.00001     0.00027
  
  S  H  23  -0.00495     0.00000    -0.00001     0.00062     0.00010     0.00231
  
  S  H  24   0.00216    -0.00006     0.00001     0.00023    -0.00011     0.00304
  
  S  H  25  -0.00526     0.00011    -0.00006    -0.00156     0.00031     0.02704
  
  S  C  26  -0.01007    -0.00036     0.00019    -0.00173     0.00048    -0.02056
 PX  C  26  -0.00122    -0.00064     0.00008    -0.00148     0.00021     0.00112
 PY  C  26   0.00611     0.00002     0.00005     0.00044    -0.00030     0.00833
 PZ  C  26   0.00584     0.00074    -0.00014    -0.00172    -0.00043    -0.02298
  
  S  C  27   0.00034    -0.00047     0.00006    -0.00289     0.00016     0.00213
 PX  C  27   0.00180     0.00017    -0.00006    -0.00111    -0.00002     0.00595
 PY  C  27  -0.00116     0.00035     0.00002     0.00296    -0.00015    -0.00341
 PZ  C  27   0.00014     0.00036    -0.00009     0.00158    -0.00008     0.00110
  
  S  H  28   0.00132     0.00077    -0.00002     0.00087    -0.00017     0.00182
  
  S  H  29  -0.00005     0.00002    -0.00000     0.00036    -0.00003    -0.00017
  
  S  H  30  -0.00028    -0.00020    -0.00007     0.00004     0.00008     0.00110
  
  S  C  31   0.00059     0.00028    -0.00004     0.00262    -0.00016     0.00994
 PX  C  31  -0.00135    -0.00016     0.00009    -0.00195     0.00014    -0.01246
 PY  C  31  -0.00041    -0.00008     0.00004    -0.00115     0.00007    -0.00321
 PZ  C  31  -0.00087    -0.00032     0.00008    -0.00224     0.00017    -0.01388
  
  S  H  32  -0.00014    -0.00004    -0.00001    -0.00047     0.00005    -0.00319
  
  S  H  33   0.00025     0.00003    -0.00001     0.00009    -0.00002     0.00123
  
  S  H  34  -0.00066    -0.00024    -0.00001    -0.00084     0.00012     0.00201
  
  S  H  35   0.00076    -0.00104    -0.00001     0.00441     0.00021    -0.00768
  
  S  C  36   0.00080     0.00030     0.00011    -0.00066    -0.00019    -0.00181
 PX  C  36   0.00124    -0.00052    -0.00018    -0.00068     0.00050    -0.00281
 PY  C  36   0.00069     0.00038     0.00011    -0.00059    -0.00014    -0.00142
 PZ  C  36   0.00005    -0.00006    -0.00001    -0.00001    -0.00004     0.00036
  
  S  C  37  -0.00621    -0.00294     0.00008    -0.00141     0.00055     0.01541
 PX  C  37   0.00068    -0.00092     0.00001    -0.00076     0.00039     0.00009
 PY  C  37  -0.00468    -0.00093     0.00002    -0.00146     0.00012     0.01412
 PZ  C  37  -0.00207     0.00346    -0.00013     0.00014     0.00018     0.02028
  
  S  H  38   0.00026    -0.00097    -0.00017     0.00001     0.00076    -0.00051
  
  S  H  39  -0.00027    -0.00011    -0.00000    -0.00010     0.00010    -0.00062
  
  S  H  40  -0.00042     0.00015    -0.00002     0.00028    -0.00009     0.00199
  
  S  C  41   0.00009     0.00074     0.00002     0.00121    -0.00042    -0.00107
 PX  C  41  -0.00066    -0.00116     0.00001    -0.00229     0.00066     0.00153
 PY  C  41   0.00022     0.00068     0.00002     0.00136    -0.00046    -0.00088
 PZ  C  41   0.00014     0.00009     0.00000     0.00011    -0.00003     0.00012
  
  S  H  42   0.00417     0.00559    -0.00011    -0.00087     0.00006     0.00115
  
  S  H  43  -0.00017    -0.00030     0.00001     0.00014     0.00002    -0.00041
  
  S  H  44   0.00043     0.00009    -0.00001     0.00040    -0.00006    -0.00051
  
  S  H  45  -0.00024     0.00003    -0.00002    -0.00070     0.00011     0.00174
  
  S Zr  46  -0.04616     0.02782     0.00724     0.17188    -0.00766    -0.00309
 PX Zr  46   0.04476    -0.00852    -0.00327    -0.20946     0.00375    -0.01117
 PY Zr  46   0.00854    -0.01122    -0.00086    -0.13701     0.00472    -0.02092
 PZ Zr  46   0.01923     0.01780    -0.00862     0.10994    -0.00512     0.01552
 X2 Zr  46  -0.04711     0.00104     0.00082     0.09345     0.00025    -0.00701
 XZ Zr  46  -0.00288    -0.02171     0.00663    -0.15643     0.00670    -0.00239
 Z2 Zr  46   0.06294    -0.00750     0.00882    -0.10609    -0.00024     0.00162
 YZ Zr  46  -0.02081    -0.01196     0.00074    -0.10263     0.00605    -0.01828
 XY Zr  46  -0.03626     0.01388    -0.00003     0.18013    -0.00466     0.01850
  
  S  C  47  -0.00125    -0.00086     0.00095     0.00926    -0.00016     0.00029
 PX  C  47  -0.00043     0.00253    -0.00096    -0.00297    -0.00026    -0.00063
 PY  C  47   0.00373    -0.00104     0.00072     0.00503    -0.00038     0.00234
 PZ  C  47  -0.00343     0.00082    -0.00052    -0.00343     0.00034    -0.00282
  
  S  H  48   0.00217    -0.00049     0.00013    -0.00008    -0.00000     0.00123
  
  S  H  49  -0.00246    -0.00022    -0.00022     0.00226     0.00029    -0.00005
  
  S  H  50   0.00140     0.00018    -0.00012     0.00256    -0.00018     0.00095
  
  S  C  51  -0.00005    -0.00060     0.00055     0.00803    -0.00022     0.00174
 PX  C  51  -0.00130     0.00115    -0.00014    -0.00135    -0.00012    -0.00083
 PY  C  51  -0.00245     0.00308    -0.00066     0.00156    -0.00043    -0.00151
 PZ  C  51   0.00215    -0.00083     0.00073     0.00229    -0.00024     0.00098
  
  S  H  52  -0.00068     0.00006    -0.00042     0.00207     0.00010     0.00040
  
  S  H  53   0.00055    -0.00100    -0.00023    -0.00418     0.00049    -0.00058
  
  S  H  54   0.00261    -0.00096     0.00068    -0.00095    -0.00000     0.00044




    ROOT NO.   13          14          15          16          17          18

           -22.98025   -22.76438   -22.76433   -22.46401   -22.42965   -22.41137
  
  
  S  C   1   0.00011     0.00098    -0.00974     0.00062    -0.00005    -0.00002
 PX  C   1   0.00057     0.00113     0.01452     0.00087    -0.00006     0.00000
 PY  C   1  -0.00181     0.00050    -0.00262    -0.00057    -0.00005    -0.00009
 PZ  C   1  -0.00062     0.00110     0.01998     0.00037    -0.00005    -0.00006
  
  S  C   2  -0.00144    -0.00269    -0.00827    -0.00249    -0.00009     0.00014
 PX  C   2  -0.00021     0.00092     0.00469     0.00044    -0.00014     0.00013
 PY  C   2  -0.00511     0.00189    -0.00125    -0.00090    -0.00016    -0.00036
 PZ  C   2  -0.00176    -0.00313     0.00731    -0.00314    -0.00010     0.00006
  
  S  C   3  -0.00046     0.00014     0.41716     0.00002    -0.00001    -0.00001
 PX  C   3  -0.00107     0.00028    -0.05099    -0.00033    -0.00004    -0.00008
 PY  C   3   0.00405    -0.00048    -0.18722     0.00148     0.00011     0.00029
 PZ  C   3   0.00084    -0.00026     0.53842     0.00039     0.00005     0.00008
  
  S  H   4  -0.00017    -0.00072     0.02766    -0.00053     0.00001     0.00002
  
  S  C   5   0.00127     0.00041     0.41440     0.00035    -0.00007     0.00002
 PX  C   5   0.00190     0.00042     0.06929     0.00057    -0.00004     0.00006
 PY  C   5  -0.00162     0.00037     0.19359    -0.00056    -0.00007    -0.00017
 PZ  C   5   0.00006     0.00061    -0.53000     0.00012    -0.00008    -0.00005
  
  S  H   6   0.00021     0.00016    -0.01086     0.00011    -0.00002     0.00000
  
  S  C   7  -0.00262     0.00064    -0.01011     0.00105     0.00013    -0.00017
 PX  C   7   0.00410     0.00100     0.01949     0.00191    -0.00001     0.00002
 PY  C   7  -0.00339     0.00093     0.00859    -0.00160    -0.00012    -0.00031
 PZ  C   7  -0.00490    -0.00016    -0.01123    -0.00068    -0.00001    -0.00015
  
  S  H   8   0.00011     0.00000    -0.01353     0.00005     0.00001    -0.00001
  
  S  C   9  -0.00105     0.00663    -0.00911     0.00294    -0.00040    -0.00020
 PX  C   9  -0.00222     0.00999     0.00689     0.00375    -0.00053    -0.00059
 PY  C   9   0.01802    -0.00203     0.00362     0.00579     0.00041     0.00092
 PZ  C   9   0.00552     0.00343    -0.00316     0.00318    -0.00020     0.00018
  
  S  H  10   0.00666    -0.00056     0.02704    -0.00097    -0.00019     0.00014
  
  S  O  11  -0.00042    -0.00056    -0.00015    -0.00055    -0.00006     0.00003
 PX  O  11  -0.00066     0.00114    -0.00109     0.00009    -0.00018     0.00011
 PY  O  11  -0.00005    -0.00028    -0.00098    -0.00002     0.00002    -0.00012
 PZ  O  11  -0.00063     0.00016     0.00136    -0.00034    -0.00015     0.00009
  
  S  C  12   0.00064     0.00056     0.00037     0.00047    -0.00002     0.00001
 PX  C  12   0.00028    -0.00020    -0.00024     0.00006     0.00003    -0.00006
 PY  C  12  -0.00009    -0.00071    -0.00152    -0.00030     0.00005    -0.00006
 PZ  C  12   0.00049     0.00135     0.00323     0.00073    -0.00008     0.00008
  
  S  H  13  -0.00043    -0.00008     0.00050    -0.00025    -0.00004     0.00002
  
  S  H  14  -0.00008    -0.00016     0.00070    -0.00010     0.00001    -0.00001
  
  S  H  15  -0.00034     0.00004     0.00046    -0.00017    -0.00004     0.00004
  
  S  N  16  -0.01220    -0.01756     0.00034    -0.01641    -0.00088     0.00094
 PX  N  16  -0.00321     0.00763    -0.00122     0.00444    -0.00028    -0.00038
 PY  N  16  -0.00380     0.01331     0.00025     0.01045     0.00101    -0.00094
 PZ  N  16  -0.01052    -0.01803    -0.00147    -0.02251    -0.00219     0.00232
  
  S  C  17   0.46165     0.02227     0.00064     0.02336     0.00765    -0.00769
 PX  C  17  -0.12744     0.00387    -0.00017    -0.00493    -0.00222    -0.00263
 PY  C  17  -0.52454     0.02277     0.00047     0.00008    -0.00641    -0.00649
 PZ  C  17   0.06905    -0.02950    -0.00115    -0.03916    -0.00139    -0.00333
  
  S  C  18  -0.02302    -0.43711     0.00001     0.00481     0.00815    -0.01586
 PX  C  18  -0.00485     0.01534     0.00062    -0.00169     0.00045    -0.00878
 PY  C  18  -0.01561     0.18919    -0.00014    -0.00127    -0.00217    -0.02794
 PZ  C  18   0.02166    -0.52892    -0.00014    -0.00495     0.00766    -0.01023
  
  S  C  19   0.41875     0.00403    -0.00019    -0.42951     0.01439    -0.00839
 PX  C  19   0.05805    -0.00230     0.00013     0.00348    -0.00319     0.00024
 PY  C  19   0.53835     0.00371    -0.00013     0.17869    -0.02663     0.00275
 PZ  C  19  -0.12069    -0.00244    -0.00011    -0.53272    -0.00594    -0.00725
  
  S  C  20  -0.00428    -0.40968     0.00008     0.00921     0.00989     0.41813
 PX  C  20   0.00041    -0.05205    -0.00054    -0.00038    -0.00039    -0.15532
 PY  C  20  -0.00290    -0.18331     0.00022    -0.00692    -0.00030    -0.54122
 PZ  C  20   0.00334     0.53127    -0.00012     0.00095     0.02352     0.09252
  
  S  C  21  -0.01330     0.00883     0.00010    -0.41204    -0.41856    -0.01014
 PX  C  21  -0.00319     0.00217     0.00084    -0.03577    -0.06540     0.00380
 PY  C  21   0.01728     0.00398    -0.00010    -0.18594    -0.37137     0.01365
 PZ  C  21   0.01341     0.00471    -0.00018     0.53674    -0.42461    -0.01820
  
  S  C  22  -0.00693     0.01099     0.00001     0.01129    -0.41480     0.41193
 PX  C  22   0.00456     0.00231    -0.00040    -0.00444     0.08865     0.11713
 PY  C  22   0.00287     0.00887     0.00009    -0.02022     0.35610     0.54769
 PZ  C  22   0.00395     0.01977    -0.00002     0.00992     0.43788    -0.10906
  
  S  H  23   0.02648    -0.00380    -0.00001     0.01190     0.01177     0.02752
  
  S  H  24   0.00280    -0.02669     0.00004    -0.02715     0.01160    -0.01246
  
  S  H  25   0.00240     0.01427    -0.00000    -0.00368    -0.02735    -0.01083
  
  S  C  26   0.01681     0.01768    -0.00000    -0.00125    -0.00118     0.01855
 PX  C  26  -0.00755    -0.00376     0.00012     0.00110     0.00082    -0.00818
 PY  C  26  -0.02270    -0.00877     0.00004     0.00212     0.00170    -0.02597
 PZ  C  26   0.00745    -0.02480    -0.00019    -0.00120     0.00026    -0.00018
  
  S  C  27  -0.00120    -0.00203    -0.00000     0.00004     0.00035    -0.00029
 PX  C  27  -0.00151    -0.00575     0.00010     0.00014     0.00018    -0.00126
 PY  C  27   0.00126     0.00398    -0.00005    -0.00004    -0.00026     0.00076
 PZ  C  27   0.00002     0.00170     0.00006     0.00021     0.00015     0.00061
  
  S  H  28  -0.00037    -0.00112     0.00008     0.00002     0.00002    -0.00050
  
[...]




    ROOT NO.   55          56          57          58          59          60

           -17.88482   -14.81511   -14.68600   -14.29640   -14.21285   -13.88827
  
  
  S  C   1  -0.00159     0.00030    -0.00012     0.00091    -0.00064    -0.00015
 PX  C   1   0.01681     0.00112     0.00098    -0.10925     0.00224     0.05128
 PY  C   1  -0.06507    -0.00191    -0.00161     0.40397    -0.01085    -0.18800
 PZ  C   1  -0.02288     0.00036     0.00062     0.12814    -0.00400    -0.05922
  
  S  C   2   0.00290     0.00230     0.00771    -0.00428     0.00229    -0.00154
 PX  C   2  -0.02502     0.00795     0.01785    -0.19124     0.01477     0.00021
 PY  C   2   0.06204     0.00917     0.00835     0.70371    -0.08025     0.00497
 PZ  C   2   0.02511    -0.00349    -0.00650     0.22212    -0.01807    -0.00154
  
  S  C   3  -0.00016     0.00065     0.00128    -0.00010    -0.00038     0.00001
 PX  C   3  -0.00221     0.00180     0.00197     0.01499    -0.01450    -0.00896
 PY  C   3   0.00646    -0.00192     0.00100    -0.05671     0.05177     0.03474
 PZ  C   3   0.00191    -0.00142    -0.00083    -0.01855     0.01729     0.01096
  
  S  H   4   0.00021    -0.00124    -0.00136    -0.00140     0.00112     0.00029
  
  S  C   5   0.00016     0.00033     0.00063     0.00010     0.00073    -0.00026
 PX  C   5  -0.01115    -0.00077    -0.00002     0.05175     0.00815    -0.12179
 PY  C   5   0.04248     0.00329     0.00163    -0.19520    -0.02872     0.45941
 PZ  C   5   0.01399     0.00145     0.00120    -0.06464    -0.00861     0.15162
  
  S  H   6   0.00002    -0.00007    -0.00020    -0.00027     0.00013     0.00026
  
  S  C   7   0.00029     0.00202     0.00170     0.00237    -0.00651     0.00864
 PX  C   7   0.00223     0.00309     0.00366    -0.00354     0.01302    -0.17363
 PY  C   7  -0.00660     0.00406     0.00107     0.02710    -0.07400     0.67608
 PZ  C   7  -0.00220    -0.00054    -0.00138     0.00737    -0.02125     0.22434
  
  S  H   8  -0.00006     0.00058     0.00056     0.00028    -0.00086     0.00043
  
  S  C   9  -0.00391    -0.00075    -0.00004    -0.00286     0.00076     0.00269
 PX  C   9   0.01838     0.00611     0.00521    -0.10550    -0.07859    -0.10553
 PY  C   9  -0.06673    -0.01134    -0.00534     0.38077     0.24022     0.37378
 PZ  C   9  -0.01775     0.00153     0.00562     0.13239     0.09280     0.12880
  
  S  H  10  -0.00041    -0.00089    -0.00123    -0.00042     0.00018    -0.00056
  
  S  O  11  -0.25259    -0.01015    -0.01084     0.00141     0.00511    -0.00090
 PX  O  11  -0.28821     0.00239     0.00562    -0.00485    -0.00111     0.00084
 PY  O  11   0.83250     0.00148     0.00311     0.02283    -0.00126    -0.00175
 PZ  O  11   0.32350     0.00394     0.00731     0.00355    -0.00122     0.00020
  
  S  C  12   0.00252     0.00872     0.00260    -0.00413    -0.00375     0.00136
 PX  C  12  -0.01050    -0.00100    -0.00650     0.00353     0.00043    -0.00096
 PY  C  12   0.03570    -0.00758    -0.00939    -0.00510     0.00428     0.00067
 PZ  C  12   0.00828     0.01632     0.01628    -0.00952    -0.00812     0.00317
  
  S  H  13   0.02982    -0.00150     0.00237    -0.00391     0.00090     0.00064
  
  S  H  14  -0.00312    -0.00521    -0.00050     0.00107     0.00046    -0.00028
  
  S  H  15  -0.03616    -0.00048     0.00012     0.00629     0.00042    -0.00106
  
  S  N  16  -0.00095    -0.00840    -0.01173    -0.00050    -0.02752    -0.00097
 PX  N  16   0.00174     0.00774     0.00131     0.01145    -0.32187     0.01076
 PY  N  16  -0.00303    -0.00254     0.00433    -0.02920     0.75436    -0.02673
 PZ  N  16  -0.00178    -0.00438     0.00098    -0.01541     0.35036    -0.01405
  
  S  C  17  -0.00038     0.00253     0.00311     0.00248     0.00243     0.00279
 PX  C  17  -0.00151     0.00049    -0.00269     0.00788    -0.07571     0.00727
 PY  C  17  -0.00020     0.00109     0.00247    -0.00388     0.07976    -0.00343
 PZ  C  17  -0.00010    -0.00796    -0.00588    -0.00723     0.03753    -0.00704
  
  S  C  18  -0.00045    -0.00177    -0.00091     0.00387    -0.02610     0.00345
 PX  C  18  -0.00039    -0.00305     0.00048    -0.00835     0.03778    -0.00833
 PY  C  18  -0.00057    -0.00020     0.00154    -0.00027     0.00934    -0.00009
 PZ  C  18   0.00037    -0.00003     0.00081    -0.00355     0.01641    -0.00321
  
  S  C  19  -0.00006    -0.00004     0.00040    -0.00343     0.02280    -0.00338
 PX  C  19   0.00019    -0.00390     0.00110    -0.01146     0.05332    -0.00985
 PY  C  19   0.00012     0.00103     0.00098    -0.00331     0.01762    -0.00367
 PZ  C  19   0.00006    -0.00026    -0.00053     0.00105    -0.00242     0.00163
  
  S  C  20   0.00038     0.00114     0.00044    -0.00019     0.00303    -0.00010
 PX  C  20  -0.00050    -0.00069     0.00154     0.00028     0.00371     0.00065
 PY  C  20   0.00038     0.00072    -0.00011    -0.00017     0.00164    -0.00027
 PZ  C  20  -0.00066    -0.00179    -0.00098     0.00009    -0.00238     0.00001
  
  S  C  21  -0.00003     0.00046     0.00034     0.00098    -0.00385     0.00079
 PX  C  21   0.00086     0.00002    -0.00011    -0.00295     0.01451    -0.00365
 PY  C  21  -0.00019     0.00013     0.00005     0.00106    -0.00306     0.00108
 PZ  C  21  -0.00004    -0.00082    -0.00055    -0.00142     0.00444    -0.00112
  
  S  C  22  -0.00010    -0.00004     0.00019     0.00004    -0.00002    -0.00000
 PX  C  22  -0.00012     0.00243    -0.00034     0.00697    -0.02602     0.00687
 PY  C  22  -0.00015    -0.00071     0.00036    -0.00180     0.00703    -0.00179
 PZ  C  22   0.00011     0.00003    -0.00002    -0.00004     0.00027    -0.00001
  
  S  H  23   0.00002    -0.00010     0.00012    -0.00091     0.00347    -0.00096
  
  S  H  24   0.00015     0.00031     0.00012     0.00015    -0.00010     0.00014
  
  S  H  25  -0.00003    -0.00025    -0.00048     0.00057    -0.00286     0.00052
  
  S  C  26   0.00175    -0.00337    -0.00809     0.00187    -0.01407     0.00229
 PX  C  26   0.00263    -0.00143    -0.00614     0.00188    -0.01102     0.00219
 PY  C  26   0.00019    -0.00040     0.00015     0.00049    -0.00276     0.00049
 PZ  C  26  -0.00461     0.00231     0.01007    -0.00373     0.01820    -0.00422
  
  S  C  27  -0.00094     0.00078    -0.00123    -0.00069    -0.00316    -0.00086
 PX  C  27  -0.00016     0.00170     0.00068    -0.00025     0.00533     0.00003
 PY  C  27   0.00049    -0.00028    -0.00006     0.00060    -0.00081     0.00059
 PZ  C  27   0.00139     0.00019     0.00055     0.00045     0.00409     0.00059
  
  S  H  28  -0.00062     0.00002     0.00050     0.00097     0.00591     0.00187
  
  S  H  29  -0.00025    -0.00006     0.00047     0.00014     0.00013     0.00013
  
  S  H  30   0.00123    -0.00035     0.00006     0.00028     0.00011     0.00029
  
  S  C  31   0.00017     0.00104     0.00166    -0.00018     0.00140    -0.00020
 PX  C  31  -0.00030    -0.00199    -0.00183     0.00010    -0.00171     0.00014
 PY  C  31  -0.00007    -0.00020    -0.00130    -0.00004    -0.00054    -0.00001
 PZ  C  31   0.00010    -0.00186    -0.00207     0.00038    -0.00167     0.00034
  
  S  H  32  -0.00016    -0.00013     0.00033    -0.00032     0.00119    -0.00032
  
  S  H  33  -0.00011     0.00024    -0.00001     0.00000     0.00009    -0.00000
  
  S  H  34   0.00057    -0.00006    -0.00107     0.00073    -0.00292     0.00073
  
  S  H  35   0.00212    -0.00976    -0.00274     0.00179     0.00058     0.00096
  
  S  C  36   0.00004     0.00004     0.00018    -0.00066     0.00048     0.00204
 PX  C  36   0.00005    -0.00002     0.00023    -0.00101     0.00199    -0.00369
 PY  C  36   0.00002     0.00007     0.00023    -0.00065     0.00038     0.00040
 PZ  C  36  -0.00002    -0.00002    -0.00003     0.00008    -0.00028     0.00015
  
  S  C  37  -0.00060    -0.00099    -0.00065     0.00329     0.00897     0.00486
 PX  C  37   0.00009     0.00006     0.00011    -0.00026     0.00107     0.00140
 PY  C  37  -0.00058    -0.00087    -0.00064     0.00219     0.00512     0.00144
 PZ  C  37   0.00081     0.00050     0.00035    -0.00494    -0.00840    -0.00594
  
  S  H  38  -0.00005     0.00002     0.00003     0.00025     0.00027    -0.00807
  
  S  H  39  -0.00007    -0.00012    -0.00006     0.00029     0.00154    -0.00021
  
  S  H  40   0.00003     0.00003    -0.00006     0.00005    -0.00082    -0.00021
  
  S  C  41   0.00034     0.00023     0.00009    -0.00011    -0.00210    -0.00068
 PX  C  41  -0.00013    -0.00068    -0.00013     0.00006     0.00466     0.00083
 PY  C  41   0.00044     0.00039     0.00016    -0.00015    -0.00234    -0.00052
 PZ  C  41  -0.00007     0.00006     0.00002     0.00014    -0.00044    -0.00010
  
  S  H  42   0.00039     0.00051     0.00026    -0.00481    -0.01334    -0.00978
  
  S  H  43  -0.00021    -0.00001    -0.00007     0.00062     0.00056     0.00059
  
  S  H  44   0.00001     0.00017     0.00017     0.00005    -0.00112    -0.00004
  
  S  H  45   0.00000    -0.00010    -0.00001    -0.00041     0.00076    -0.00042
  
  S Zr  46  -0.02448    -0.17497    -0.18164    -0.01581     0.02613    -0.01284
 PX Zr  46  -0.04350    -0.06025    -0.26737     0.00328    -0.04795     0.00304
 PY Zr  46   0.07892    -0.30819     0.14357    -0.01471     0.14103    -0.01353
 PZ Zr  46   0.03034     0.05922    -0.09305    -0.00248     0.03796    -0.00353
 X2 Zr  46   0.06066     0.24917    -0.13298    -0.02046     0.17772    -0.01924
 XZ Zr  46   0.01478     0.01099    -0.11894     0.01540    -0.11747     0.01927
 Z2 Zr  46  -0.04502     0.16926     0.16298    -0.01199     0.04939    -0.00915
 YZ Zr  46  -0.10945     0.13250     0.08882     0.00854     0.00939    -0.00226
 XY Zr  46  -0.07811    -0.08430     0.22849     0.01454    -0.13870     0.01370
  
  S  C  47  -0.00696    -0.01012    -0.42726    -0.00050     0.00192    -0.00044
 PX  C  47   0.01157     0.00290     0.57370    -0.00032     0.00117    -0.00012
 PY  C  47  -0.00929    -0.00203    -0.40502     0.00128    -0.00814     0.00123
 PZ  C  47   0.00087     0.00293     0.26496    -0.00160     0.00807    -0.00148
  
  S  H  48   0.00249     0.00071    -0.00168     0.00100    -0.00335     0.00091
  
  S  H  49  -0.00270    -0.00012    -0.00224    -0.00091     0.00707    -0.00133
  
  S  H  50  -0.00398    -0.00248    -0.00255     0.00172    -0.00674     0.00120
  
  S  C  51  -0.00745    -0.43127    -0.00893    -0.00086     0.00526    -0.00078
 PX  C  51   0.00899     0.34335     0.00032     0.00126    -0.00337     0.00079
 PY  C  51   0.00654     0.63804     0.00508     0.00123    -0.00928     0.00112
 PZ  C  51   0.00200    -0.19819    -0.00129    -0.00149     0.00753    -0.00140
  
  S  H  52  -0.00555    -0.00204    -0.00180     0.00085    -0.00241     0.00043
  
  S  H  53   0.00016    -0.00016    -0.00232     0.00038     0.00377    -0.00017
  
  S  H  54   0.00572    -0.00190     0.00035    -0.00097     0.00570    -0.00072




    ROOT NO.   61          62          63          64

           -13.73762   -13.56132   -13.47666   -13.31663
  
  
  S  C   1   0.00101     0.00139     0.00208    -0.00118
 PX  C   1  -0.13041     0.00219     0.00314    -0.00202
 PY  C   1   0.48222    -0.00089    -0.00176     0.00114
 PZ  C   1   0.15287     0.00129     0.00137    -0.00088
  
  S  C   2   0.00081    -0.00056    -0.00163     0.00074
 PX  C   2   0.00071     0.00393     0.00587    -0.00357
 PY  C   2  -0.00640    -0.00594    -0.00599     0.00471
 PZ  C   2   0.00045    -0.00397    -0.00469     0.00321
  
  S  C   3  -0.00071     0.00056     0.00113    -0.00038
 PX  C   3  -0.17585    -0.00134    -0.00159     0.00113
 PY  C   3   0.65924     0.00555     0.00589    -0.00478
 PZ  C   3   0.21392     0.00215     0.00295    -0.00169
  
  S  H   4  -0.00085    -0.00054    -0.00061     0.00045
  
  S  C   5  -0.00031     0.00056    -0.00072    -0.00059
 PX  C   5  -0.09937     0.00145     0.00087    -0.00150
 PY  C   5   0.37411    -0.00212    -0.00573     0.00258
 PZ  C   5   0.12360     0.00021    -0.00081    -0.00014
  
  S  H   6   0.00015     0.00023     0.00006    -0.00024
  
  S  C   7  -0.00179    -0.00050     0.00423     0.00116
 PX  C   7   0.00825    -0.00072    -0.00313     0.00036
 PY  C   7  -0.04127    -0.00864    -0.00956     0.00607
 PZ  C   7  -0.01268    -0.00007     0.00428     0.00108
  
  S  H   8  -0.00037    -0.00067    -0.00081     0.00050
  
  S  C   9   0.00023     0.01540     0.02340    -0.01250
 PX  C   9   0.05429     0.01286     0.01689    -0.00981
 PY  C   9  -0.19837     0.01437     0.02609    -0.01408
 PZ  C   9  -0.06755     0.01931     0.02749    -0.01598
  
  S  H  10   0.00037    -0.00145    -0.01616     0.00104
  
  S  O  11   0.00037     0.00127     0.00163    -0.00086
 PX  O  11   0.00058     0.00183     0.00249    -0.00142
 PY  O  11  -0.00388     0.00015     0.00066    -0.00029
 PZ  O  11  -0.00139     0.00115     0.00088    -0.00058
  
  S  C  12  -0.00079    -0.00106    -0.00140     0.00095
 PX  C  12   0.00078    -0.00029    -0.00009     0.00014
 PY  C  12  -0.00111     0.00064     0.00101    -0.00063
 PZ  C  12  -0.00138    -0.00159    -0.00213     0.00141
  
  S  H  13  -0.00137     0.00071     0.00089    -0.00059
  
  S  H  14   0.00042     0.00006     0.00020    -0.00009
  
  S  H  15   0.00203     0.00050     0.00060    -0.00040
  
  S  N  16   0.00050    -0.00581    -0.00805     0.00497
 PX  N  16  -0.00827    -0.00190     0.02487    -0.00273
 PY  N  16   0.02060     0.00700     0.00053    -0.00488
 PZ  N  16   0.01069     0.01271     0.01373    -0.00897
  
  S  C  17  -0.00177     0.00032     0.01366     0.00169
 PX  C  17  -0.00553     0.31827     0.56250    -0.20083
 PY  C  17   0.00228    -0.07106    -0.13010     0.04178
 PZ  C  17   0.00505    -0.04200    -0.07086     0.02966
  
  S  C  18  -0.00273    -0.00562    -0.00335    -0.00090
 PX  C  18   0.00641     0.67498     0.10904    -0.09343
 PY  C  18   0.00010    -0.21373    -0.03149     0.03035
 PZ  C  18   0.00267    -0.04932    -0.00494     0.00537
  
  S  C  19   0.00241     0.00376     0.00721    -0.00565
 PX  C  19   0.00879    -0.10242     0.67720     0.12333
 PY  C  19   0.00252     0.01755    -0.07505    -0.02114
 PZ  C  19  -0.00085     0.00238    -0.02620    -0.00323
  
  S  C  20   0.00009    -0.00426     0.00070     0.00214
 PX  C  20  -0.00033     0.54003    -0.20862     0.34408
 PY  C  20   0.00013    -0.15660     0.06116    -0.09884
 PZ  C  20  -0.00004    -0.00344     0.00072    -0.00197
  
  S  C  21  -0.00066     0.00091    -0.00344     0.00066
 PX  C  21   0.00252    -0.20579     0.33777     0.56110
 PY  C  21  -0.00086     0.03672    -0.05862    -0.09994
 PZ  C  21   0.00102    -0.00032     0.00003     0.00046
  
  S  C  22  -0.00003     0.00174    -0.00043     0.00669
 PX  C  22  -0.00564     0.10167    -0.09688     0.67318
 PY  C  22   0.00149    -0.02123     0.02131    -0.15317
 PZ  C  22   0.00004    -0.00048    -0.00020    -0.00534
  
  S  H  23   0.00074    -0.00092     0.00226     0.00094
  
  S  H  24  -0.00011    -0.00052     0.00092    -0.00026
  
  S  H  25  -0.00044    -0.00260     0.00129    -0.00137
  
  S  C  26  -0.00165    -0.00307    -0.00360     0.00246
 PX  C  26  -0.00165     0.04801    -0.00135    -0.00691
 PY  C  26  -0.00041    -0.01672     0.00159     0.00106
 PZ  C  26   0.00334    -0.00061     0.00368    -0.00190
  
  S  C  27   0.00035     0.01685     0.00451    -0.00415
 PX  C  27   0.00032     0.01922     0.00530    -0.00615
 PY  C  27  -0.00038    -0.00942    -0.00571     0.00454
 PZ  C  27  -0.00014    -0.00021    -0.00070     0.00103
  
  S  H  28  -0.00046    -0.00106    -0.00025    -0.00027
  
  S  H  29  -0.00009    -0.00573    -0.00198     0.00145
  
  S  H  30  -0.00024    -0.00225     0.00050    -0.00076
  
  S  C  31   0.00013    -0.00881    -0.00134     0.00091
 PX  C  31  -0.00006     0.00419     0.00217    -0.00238
 PY  C  31   0.00003     0.00094     0.00149    -0.00027
 PZ  C  31  -0.00027     0.00828     0.00242    -0.00261
  
  S  H  32   0.00027     0.00381    -0.00002     0.00069
  
  S  H  33   0.00001     0.00271     0.00005     0.00012
  
  S  H  34  -0.00061    -0.00008    -0.00023    -0.00003
  
  S  H  35  -0.00102    -0.01100    -0.00196     0.00311
  
  S  C  36   0.00057    -0.00361     0.01255     0.00430
 PX  C  36   0.00057    -0.00348     0.01337     0.00380
 PY  C  36   0.00072    -0.00229     0.00694     0.00292
 PZ  C  36  -0.00013    -0.00004    -0.00367     0.00053
  
  S  C  37  -0.00177    -0.00230     0.00334     0.00151
 PX  C  37   0.00000    -0.00609     0.04777    -0.00128
 PY  C  37  -0.00094    -0.00231    -0.00068     0.00207
 PZ  C  37   0.00271    -0.00322     0.00226     0.00262
  
  S  H  38   0.00021    -0.00005    -0.00051    -0.00033
  
  S  H  39  -0.00020     0.00023    -0.00027    -0.00152
  
  S  H  40  -0.00012     0.00147    -0.00432    -0.00242
  
  S  C  41   0.00010     0.00469    -0.01441    -0.00584
 PX  C  41  -0.00005    -0.00568     0.01389     0.00576
 PY  C  41   0.00009     0.00337    -0.00712    -0.00447
 PZ  C  41  -0.00008     0.00079     0.00325    -0.00143
  
  S  H  42   0.00237    -0.00104     0.00109     0.00135
  
  S  H  43  -0.00036    -0.00003     0.00066     0.00163
  
  S  H  44  -0.00004     0.00067     0.00279    -0.00029
  
  S  H  45   0.00030    -0.00265     0.00548     0.00369
  
  S Zr  46   0.01152    -0.01980    -0.02437     0.01575
 PX Zr  46  -0.00311     0.00387     0.00238    -0.00204
 PY Zr  46   0.01107    -0.00022     0.00066    -0.00291
 PZ Zr  46   0.00235     0.00834     0.01334    -0.00502
 X2 Zr  46   0.01585     0.00051    -0.00229    -0.00092
 XZ Zr  46  -0.01491    -0.00066    -0.00409     0.00136
 Z2 Zr  46   0.00739     0.01562     0.01837    -0.01040
 YZ Zr  46  -0.00042    -0.02224    -0.02093     0.01252
 XY Zr  46  -0.01156    -0.01032    -0.01389     0.00889
  
  S  C  47   0.00040    -0.00207    -0.00192     0.00084
 PX  C  47   0.00007     0.00108     0.00065    -0.00025
 PY  C  47  -0.00097     0.00155     0.00265    -0.00089
 PZ  C  47   0.00125    -0.00246    -0.00305     0.00130
  
  S  H  48  -0.00083     0.00136     0.00158    -0.00099
  
  S  H  49   0.00100     0.00152     0.00234    -0.00029
  
  S  H  50  -0.00107     0.00009     0.00054    -0.00013
  
  S  C  51   0.00071     0.00117     0.00114    -0.00060
 PX  C  51  -0.00076    -0.00112    -0.00147     0.00088
 PY  C  51  -0.00104    -0.00261    -0.00278     0.00191
 PZ  C  51   0.00113     0.00203     0.00209    -0.00138
  
  S  H  52  -0.00048    -0.00039    -0.00013     0.00023
  
  S  H  53   0.00002     0.00004     0.00058    -0.00024
  
  S  H  54   0.00056     0.00184     0.00221    -0.00140

          BONDING CONTRIBUTION OF EACH M.O.

  0.9015  1.7461  1.7852  2.0016  1.9851  1.9904  1.9712  1.9979  2.0091  1.2558
  1.9982  1.9850  1.9808  1.9986  1.9942  1.9961  1.9959  1.9968  1.9657  1.9417
  1.9372  1.9844  1.9535  1.9756  2.2556  1.9971  1.9965  1.9517  1.9366  1.9467
  1.9526  1.9506  1.9509  1.9468  1.9476  1.9470  1.9438  1.9968  2.0000  1.9415
  1.9404  1.9707  2.1048  1.9553  1.9558  1.9536  2.0030  1.9483  2.0450  1.9515
  1.9469  2.0470  2.0632  2.0417  0.3705  1.4779  1.4945  1.8011  1.1854  1.9566
  1.9776  1.9458  1.9974  2.0177 -0.5091 -1.6570 -2.0950 -1.9506 -1.3300 -1.7770
 -1.1742 -0.8154 -0.9683 -0.6492 -1.3301 -1.8285 -1.8009 -1.7768 -1.9142 -1.7467
 -1.9469 -1.9599 -1.8720 -1.9102 -1.9173 -1.9518 -1.9504 -1.8820 -1.8438 -1.9365
 -1.9793 -1.9002 -1.9539 -1.9724 -1.9412 -1.9515 -1.8900 -1.9191 -1.9850 -1.9668
 -1.8468 -1.9639 -1.8975 -1.6769 -1.8502 -1.9366 -1.8382 -1.9067 -1.8643 -1.9510
 -1.8607 -1.9506 -1.9562 -1.9588 -1.8984 -1.9706 -1.9676 -1.9618 -1.9193 -1.9655
 -1.9640 -1.9108 -1.9585 -1.9101 -1.9728 -1.9115 -1.9038 -1.9233 -1.9164 -1.8505
 -1.8449

 **********************
 *                    *
 * JOB ENDED NORMALLY *
 *                    *
 **********************



 TOTAL JOB TIME:            16.62 SECONDS

 == MOPAC DONE ==
