 *******************************************************************************
 ** Site#: 14762        For non-commercial use only    Version 17.165L 64BITS **
 *******************************************************************************
 ** Cite this program as: MOPAC2016, Version: 17.165L, James J. P. Stewart,   **
 ** Stewart Computational Chemistry, web: HTTP://OpenMOPAC.net. Days left: 226**
 *******************************************************************************
 **                                                                           **
 **                                MOPAC2016                                  **
 **                                                                           **
 *******************************************************************************

                              PM6 CALCULATION RESULTS


 *******************************************************************************
 *  CALCULATION DONE:                                Tue Oct 31 16:34:45 2017  *
 *  PM6        - The PM6 Hamiltonian to be used
 *
 *
 *
 *                 CHARGE ON SYSTEM =    -1
 *
 *
 *
 *  NOSYM      - POINT-GROUP SYMMETRY SET TO C1
 *  T=         - A TIME OF     12.0 MINUTES REQUESTED
 *  DUMP=N     - RESTART FILE WRITTEN EVERY  7200.000 SECONDS
 *  GNORM=     - EXIT WHEN GRADIENT NORM DROPS BELOW   5.00    
 *  AUX        - OUTPUT AUXILIARY INFORMATION
 *  LOCALIZE   - LOCALIZED ORBITALS TO BE PRINTED
 *******************************************************************************
 PM6 NOSYM T=12M GNORM=5.000000 CHARGE=-1 AUX LOCALIZE
   MOPAC run
   ready to go?
   ATOM   CHEMICAL          X               Y               Z
  NUMBER   SYMBOL      (ANGSTROMS)     (ANGSTROMS)     (ANGSTROMS)
 
     1       C         -0.24376100  *  -4.07945300  *  -0.04518800  *
     2       C          0.90430100  *  -3.29714100  *   0.04334300  *
     3       C         -1.03323100  *  -4.08382100  *  -1.21092200  *
     4       H         -0.54332800  *  -4.69526000  *   0.79809800  *
     5       C         -0.63808100  *  -3.26968100  *  -2.28069200  *
     6       H         -1.92475600  *  -4.70193800  *  -1.26712500  *
     7       C          0.51173200  *  -2.48699900  *  -2.19695300  *
     8       H         -1.23219700  *  -3.24482800  *  -3.19304200  *
     9       C          1.35961300  *  -2.45858800  *  -1.04280500  *
    10       H          0.81546600  *  -1.85143800  *  -3.02343200  *
    11       O          1.69968200  *  -3.23706700  *   1.21115600  *
    12       C          1.20651300  *  -3.86347400  *   2.40697500  *
    13       H          0.20637000  *  -3.49343900  *   2.67616200  *
    14       H          1.92060700  *  -3.60096400  *   3.18965500  *
    15       H          1.16070900  *  -4.95857900  *   2.31149000  *
    16       N          2.40940000  *  -1.60594500  *  -1.02086800  *
    17       C          3.57345700  *  -1.63902000  *  -0.28581900  *
    18       C          4.00369900  *  -0.43298100  *   0.37595500  *
    19       C          4.47966900  *  -2.75952300  *  -0.26202900  *
    20       C          5.23674200  *  -0.39359900  *   1.03565100  *
    21       C          5.70392500  *  -2.66201900  *   0.41031900  *
    22       C          6.09851800  *  -1.49589200  *   1.07217900  *
    23       H          6.37243800  *  -3.52213600  *   0.40417600  *
    24       H          7.05109800  *  -1.44337400  *   1.59381800  *
    25       H          5.52504800  *   0.52872900  *   1.54015000  *
    26       C          3.13923900  *   0.82940800  *   0.39262900  *
    27       C          2.95330300  *   1.43162800  *  -1.02071200  *
    28       H          3.92415200  *   1.70482200  *  -1.45442000  *
    29       H          2.32721500  *   2.33533500  *  -0.98016200  *
    30       H          2.47903600  *   0.68446100  *  -1.66319800  *
    31       C          1.77362800  *   0.61906300  *   1.08783300  *
    32       H          1.22544600  *   1.57090200  *   1.15425500  *
    33       H          1.91213400  *   0.22609300  *   2.10260300  *
    34       H          1.17334600  *  -0.09799800  *   0.52382600  *
    35       H          3.69253800  *   1.57197600  *   0.99254500  *
    36       C          4.19254500  *  -5.29814900  *  -0.13855000  *
    37       C          4.17067600  *  -4.04133900  *  -1.03749400  *
    38       H          3.49757500  *  -5.17118300  *   0.69671600  *
    39       H          5.19421800  *  -5.48012500  *   0.27494400  *
    40       H          3.89920100  *  -6.19192500  *  -0.70734200  *
    41       C          5.13014300  *  -4.21227200  *  -2.24057300  *
    42       H          3.16130800  *  -3.95472400  *  -1.44549700  *
    43       H          6.17091300  *  -4.31379600  *  -1.90466800  *
    44       H          5.07300800  *  -3.34001900  *  -2.90148400  *
    45       H          4.87374200  *  -5.10699800  *  -2.82656200  *
 


          CARTESIAN COORDINATES 

    NO.       ATOM         X         Y         Z

     1         C       -0.2438   -4.0795   -0.0452
     2         C        0.9043   -3.2971    0.0433
     3         C       -1.0332   -4.0838   -1.2109
     4         H       -0.5433   -4.6953    0.7981
     5         C       -0.6381   -3.2697   -2.2807
     6         H       -1.9248   -4.7019   -1.2671
     7         C        0.5117   -2.4870   -2.1970
     8         H       -1.2322   -3.2448   -3.1930
     9         C        1.3596   -2.4586   -1.0428
    10         H        0.8155   -1.8514   -3.0234
    11         O        1.6997   -3.2371    1.2112
    12         C        1.2065   -3.8635    2.4070
    13         H        0.2064   -3.4934    2.6762
    14         H        1.9206   -3.6010    3.1897
    15         H        1.1607   -4.9586    2.3115
    16         N        2.4094   -1.6059   -1.0209
    17         C        3.5735   -1.6390   -0.2858
    18         C        4.0037   -0.4330    0.3760
    19         C        4.4797   -2.7595   -0.2620
    20         C        5.2367   -0.3936    1.0357
    21         C        5.7039   -2.6620    0.4103
    22         C        6.0985   -1.4959    1.0722
    23         H        6.3724   -3.5221    0.4042
    24         H        7.0511   -1.4434    1.5938
    25         H        5.5250    0.5287    1.5402
    26         C        3.1392    0.8294    0.3926
    27         C        2.9533    1.4316   -1.0207
    28         H        3.9242    1.7048   -1.4544
    29         H        2.3272    2.3353   -0.9802
    30         H        2.4790    0.6845   -1.6632
    31         C        1.7736    0.6191    1.0878
    32         H        1.2254    1.5709    1.1543
    33         H        1.9121    0.2261    2.1026
    34         H        1.1733   -0.0980    0.5238
    35         H        3.6925    1.5720    0.9925
    36         C        4.1925   -5.2981   -0.1386
    37         C        4.1707   -4.0413   -1.0375
    38         H        3.4976   -5.1712    0.6967
    39         H        5.1942   -5.4801    0.2749
    40         H        3.8992   -6.1919   -0.7073
    41         C        5.1301   -4.2123   -2.2406
    42         H        3.1613   -3.9547   -1.4455
    43         H        6.1709   -4.3138   -1.9047
    44         H        5.0730   -3.3400   -2.9015
    45         H        4.8737   -5.1070   -2.8266

 General Reference for PM6:
 "Optimization of Parameters for Semiempirical Methods V: Modification of NDDO Approximations
 and Application to 70 Elements", J. J. P. Stewart, J. Mol. Mod., 13, 1173-1213 (2007)
 URL: http://www.springerlink.com/content/ar33482301010477/fulltext.pdf

           Empirical Formula: C19 H24 N O  =    45 atoms



      MOLECULAR POINT GROUP   :   C1  


      RHF CALCULATION, NO. OF DOUBLY OCCUPIED LEVELS = 56


          Geometry optimization using L-BFGS
 CYCLE:     1 TIME:   0.117 TIME LEFT: 12.00M  GRAD.:    58.020 HEAT: -35.09148
 CYCLE:     2 TIME:   0.062 TIME LEFT: 11.99M  GRAD.:    57.243 HEAT: -35.12495
 CYCLE:     3 TIME:   0.066 TIME LEFT: 11.99M  GRAD.:    22.404 HEAT: -36.77061
 CYCLE:     4 TIME:   0.066 TIME LEFT: 11.99M  GRAD.:    58.118 HEAT: -35.12282
 CYCLE:     5 TIME:   0.062 TIME LEFT: 11.99M  GRAD.:    22.934 HEAT: -36.77047
 CYCLE:     6 TIME:   0.066 TIME LEFT: 11.99M  GRAD.:    19.375 HEAT: -37.08759
 CYCLE:     7 TIME:   0.066 TIME LEFT: 11.99M  GRAD.:    22.539 HEAT: -37.51126
 CYCLE:     8 TIME:   0.062 TIME LEFT: 11.99M  GRAD.:    26.922 HEAT: -37.58384
 CYCLE:     9 TIME:   0.062 TIME LEFT: 11.99M  GRAD.:     8.528 HEAT: -37.71643
 CYCLE:    10 TIME:   0.062 TIME LEFT: 11.99M  GRAD.:     5.830 HEAT: -37.75246
 CYCLE:    11 TIME:   0.066 TIME LEFT: 11.98M  GRAD.:     6.407 HEAT: -37.81652
 CYCLE:    12 TIME:   0.062 TIME LEFT: 11.98M  GRAD.:     6.385 HEAT: -37.86140
 CYCLE:    13 TIME:   0.062 TIME LEFT: 11.98M  GRAD.:    12.741 HEAT: -37.88521
 CYCLE:    14 TIME:   0.066 TIME LEFT: 11.98M  GRAD.:     4.900 HEAT: -37.93395

 -------------------------------------------------------------------------------
 PM6 NOSYM T=12M GNORM=5.000000 CHARGE=-1 AUX LOCALIZE
   MOPAC run
   ready to go?


     HERBERTS TEST WAS SATISFIED IN BFGS                      
     SCF FIELD WAS ACHIEVED                                   


                              PM6 CALCULATION
                                                       MOPAC2016 (Version: 17.165L)
                                                       Tue Oct 31 16:34:46 2017
                                                       No. of days remaining = 226




          FINAL HEAT OF FORMATION =        -37.93403 KCAL/MOL =    -158.71597 KJ/MOL


          TOTAL ENERGY            =      -3124.98758 EV
          ELECTRONIC ENERGY       =     -25861.65941 EV  POINT GROUP:     C1  
          CORE-CORE REPULSION     =      22736.67183 EV
          COSMO AREA              =        309.64 SQUARE ANGSTROMS
          COSMO VOLUME            =        383.06 CUBIC ANGSTROMS

          GRADIENT NORM           =          4.90044
          IONIZATION POTENTIAL    =          3.121258 EV
          HOMO LUMO ENERGIES (EV) =         -3.121  4.256
          NO. OF FILLED LEVELS    =         56
          MOLECULAR WEIGHT        =        282.4047

          MOLECULAR DIMENSIONS (Angstroms)

            Atom       Atom       Distance
            H    24    H     6     9.90699
            H    32    H    45     8.55228
            H    28    H    15     6.90349


          SCF CALCULATIONS        =         15
 
          WALL-CLOCK TIME         =          1.188 SECONDS
          COMPUTATION TIME        =          1.016 SECONDS



       FINAL  POINT  AND  DERIVATIVES

   PARAMETER     ATOM    TYPE            VALUE       GRADIENT
      1          1  C    CARTESIAN X    -0.246205    -0.588438  KCAL/ANGSTROM
      2          1  C    CARTESIAN Y    -4.086754    -0.390400  KCAL/ANGSTROM
      3          1  C    CARTESIAN Z    -0.019149     0.861088  KCAL/ANGSTROM
      4          2  C    CARTESIAN X     0.891129     0.028843  KCAL/ANGSTROM
      5          2  C    CARTESIAN Y    -3.310432     0.334000  KCAL/ANGSTROM
      6          2  C    CARTESIAN Z     0.066377     0.507788  KCAL/ANGSTROM
      7          3  C    CARTESIAN X    -1.019809     0.299003  KCAL/ANGSTROM
      8          3  C    CARTESIAN Y    -4.072266    -0.037511  KCAL/ANGSTROM
      9          3  C    CARTESIAN Z    -1.198799     0.299000  KCAL/ANGSTROM
     10          4  H    CARTESIAN X    -0.568509    -0.894545  KCAL/ANGSTROM
     11          4  H    CARTESIAN Y    -4.720007    -0.859184  KCAL/ANGSTROM
     12          4  H    CARTESIAN Z     0.800348     0.234417  KCAL/ANGSTROM
     13          5  C    CARTESIAN X    -0.622481     0.149230  KCAL/ANGSTROM
     14          5  C    CARTESIAN Y    -3.257622    -0.363794  KCAL/ANGSTROM
     15          5  C    CARTESIAN Z    -2.256874     0.866181  KCAL/ANGSTROM
     16          6  H    CARTESIAN X    -1.901588     0.093049  KCAL/ANGSTROM
     17          6  H    CARTESIAN Y    -4.687395    -0.075055  KCAL/ANGSTROM
     18          6  H    CARTESIAN Z    -1.272070    -0.328524  KCAL/ANGSTROM
     19          7  C    CARTESIAN X     0.521558     0.413531  KCAL/ANGSTROM
     20          7  C    CARTESIAN Y    -2.473420     0.446888  KCAL/ANGSTROM
     21          7  C    CARTESIAN Z    -2.186554    -0.061737  KCAL/ANGSTROM
     22          8  H    CARTESIAN X    -1.212942     0.821445  KCAL/ANGSTROM
     23          8  H    CARTESIAN Y    -3.238990     0.013824  KCAL/ANGSTROM
     24          8  H    CARTESIAN Z    -3.169263     0.231267  KCAL/ANGSTROM
     25          9  C    CARTESIAN X     1.361839     0.549142  KCAL/ANGSTROM
     26          9  C    CARTESIAN Y    -2.460853    -0.171174  KCAL/ANGSTROM
     27          9  C    CARTESIAN Z    -1.026907     0.522905  KCAL/ANGSTROM
     28         10  H    CARTESIAN X     0.821005     0.581118  KCAL/ANGSTROM
     29         10  H    CARTESIAN Y    -1.850350     0.059071  KCAL/ANGSTROM
     30         10  H    CARTESIAN Z    -3.021002     0.011660  KCAL/ANGSTROM
     31         11  O    CARTESIAN X     1.716106    -0.263689  KCAL/ANGSTROM
     32         11  O    CARTESIAN Y    -3.256919     0.541857  KCAL/ANGSTROM
     33         11  O    CARTESIAN Z     1.195629    -0.007393  KCAL/ANGSTROM
     34         12  C    CARTESIAN X     1.200467    -0.659107  KCAL/ANGSTROM
     35         12  C    CARTESIAN Y    -3.866235    -0.261384  KCAL/ANGSTROM
     36         12  C    CARTESIAN Z     2.394564     0.025592  KCAL/ANGSTROM
     37         13  H    CARTESIAN X     0.213550    -0.057496  KCAL/ANGSTROM
     38         13  H    CARTESIAN Y    -3.470528    -1.036363  KCAL/ANGSTROM
     39         13  H    CARTESIAN Z     2.647255     0.210696  KCAL/ANGSTROM
     40         14  H    CARTESIAN X     1.945223    -0.557573  KCAL/ANGSTROM
     41         14  H    CARTESIAN Y    -3.568573     0.141116  KCAL/ANGSTROM
     42         14  H    CARTESIAN Z     3.139705    -0.258220  KCAL/ANGSTROM
     43         15  H    CARTESIAN X     1.165382    -0.600896  KCAL/ANGSTROM
     44         15  H    CARTESIAN Y    -4.952359     0.346253  KCAL/ANGSTROM
     45         15  H    CARTESIAN Z     2.276379    -0.223495  KCAL/ANGSTROM
     46         16  N    CARTESIAN X     2.420505     0.043888  KCAL/ANGSTROM
     47         16  N    CARTESIAN Y    -1.635673     0.175489  KCAL/ANGSTROM
     48         16  N    CARTESIAN Z    -1.054714    -1.055506  KCAL/ANGSTROM
     49         17  C    CARTESIAN X     3.564722     0.123615  KCAL/ANGSTROM
     50         17  C    CARTESIAN Y    -1.652535    -0.605638  KCAL/ANGSTROM
     51         17  C    CARTESIAN Z    -0.272585     0.414980  KCAL/ANGSTROM
     52         18  C    CARTESIAN X     3.976892     0.272505  KCAL/ANGSTROM
     53         18  C    CARTESIAN Y    -0.441716     0.497506  KCAL/ANGSTROM
     54         18  C    CARTESIAN Z     0.377544     0.278188  KCAL/ANGSTROM
     55         19  C    CARTESIAN X     4.472242     0.429253  KCAL/ANGSTROM
     56         19  C    CARTESIAN Y    -2.767093     0.158903  KCAL/ANGSTROM
     57         19  C    CARTESIAN Z    -0.271522     0.253196  KCAL/ANGSTROM
     58         20  C    CARTESIAN X     5.210577    -0.869028  KCAL/ANGSTROM
     59         20  C    CARTESIAN Y    -0.394694    -0.099138  KCAL/ANGSTROM
     60         20  C    CARTESIAN Z     1.027480    -0.184277  KCAL/ANGSTROM
     61         21  C    CARTESIAN X     5.690612    -0.445651  KCAL/ANGSTROM
     62         21  C    CARTESIAN Y    -2.669469    -0.509498  KCAL/ANGSTROM
     63         21  C    CARTESIAN Z     0.398578    -0.295940  KCAL/ANGSTROM
     64         22  C    CARTESIAN X     6.068775     0.152387  KCAL/ANGSTROM
     65         22  C    CARTESIAN Y    -1.496191     0.673197  KCAL/ANGSTROM
     66         22  C    CARTESIAN Z     1.056849    -0.033209  KCAL/ANGSTROM
     67         23  H    CARTESIAN X     6.370230     0.542629  KCAL/ANGSTROM
     68         23  H    CARTESIAN Y    -3.519754    -0.127321  KCAL/ANGSTROM
     69         23  H    CARTESIAN Z     0.404511     0.109896  KCAL/ANGSTROM
     70         24  H    CARTESIAN X     7.013275    -0.400185  KCAL/ANGSTROM
     71         24  H    CARTESIAN Y    -1.438565     0.185171  KCAL/ANGSTROM
     72         24  H    CARTESIAN Z     1.577267    -0.110873  KCAL/ANGSTROM
     73         25  H    CARTESIAN X     5.519001     0.243847  KCAL/ANGSTROM
     74         25  H    CARTESIAN Y     0.522174     0.137293  KCAL/ANGSTROM
     75         25  H    CARTESIAN Z     1.526870    -0.028543  KCAL/ANGSTROM
     76         26  C    CARTESIAN X     3.148062    -0.372862  KCAL/ANGSTROM
     77         26  C    CARTESIAN Y     0.831885    -0.119828  KCAL/ANGSTROM
     78         26  C    CARTESIAN Z     0.404516    -0.433890  KCAL/ANGSTROM
     79         27  C    CARTESIAN X     2.966346     0.134347  KCAL/ANGSTROM
     80         27  C    CARTESIAN Y     1.423877     0.839232  KCAL/ANGSTROM
     81         27  C    CARTESIAN Z    -1.001761     0.059417  KCAL/ANGSTROM
     82         28  H    CARTESIAN X     3.928449     0.440097  KCAL/ANGSTROM
     83         28  H    CARTESIAN Y     1.671361     0.297659  KCAL/ANGSTROM
     84         28  H    CARTESIAN Z    -1.455221    -0.291764  KCAL/ANGSTROM
     85         29  H    CARTESIAN X     2.333339    -0.779147  KCAL/ANGSTROM
     86         29  H    CARTESIAN Y     2.311883     0.122248  KCAL/ANGSTROM
     87         29  H    CARTESIAN Z    -0.982003     0.560640  KCAL/ANGSTROM
     88         30  H    CARTESIAN X     2.483125     0.089603  KCAL/ANGSTROM
     89         30  H    CARTESIAN Y     0.678641     0.083769  KCAL/ANGSTROM
     90         30  H    CARTESIAN Z    -1.657922     0.130716  KCAL/ANGSTROM
     91         31  C    CARTESIAN X     1.791401    -0.103811  KCAL/ANGSTROM
     92         31  C    CARTESIAN Y     0.619101     0.782920  KCAL/ANGSTROM
     93         31  C    CARTESIAN Z     1.091044     0.461977  KCAL/ANGSTROM
     94         32  H    CARTESIAN X     1.225150    -0.038771  KCAL/ANGSTROM
     95         32  H    CARTESIAN Y     1.549736     1.028210  KCAL/ANGSTROM
     96         32  H    CARTESIAN Z     1.154131    -0.660344  KCAL/ANGSTROM
     97         33  H    CARTESIAN X     1.920064     0.274977  KCAL/ANGSTROM
     98         33  H    CARTESIAN Y     0.200043    -0.113484  KCAL/ANGSTROM
     99         33  H    CARTESIAN Z     2.092559     0.428100  KCAL/ANGSTROM
    100         34  H    CARTESIAN X     1.191032     0.501318  KCAL/ANGSTROM
    101         34  H    CARTESIAN Y    -0.106506     0.131793  KCAL/ANGSTROM
    102         34  H    CARTESIAN Z     0.519246    -0.253096  KCAL/ANGSTROM
    103         35  H    CARTESIAN X     3.706485    -0.011111  KCAL/ANGSTROM
    104         35  H    CARTESIAN Y     1.594756    -0.034189  KCAL/ANGSTROM
    105         35  H    CARTESIAN Z     1.010713    -0.269420  KCAL/ANGSTROM
    106         36  C    CARTESIAN X     4.197483     0.023816  KCAL/ANGSTROM
    107         36  C    CARTESIAN Y    -5.280777    -0.478198  KCAL/ANGSTROM
    108         36  C    CARTESIAN Z    -0.133938    -0.292096  KCAL/ANGSTROM
    109         37  C    CARTESIAN X     4.165024     0.678542  KCAL/ANGSTROM
    110         37  C    CARTESIAN Y    -4.038234    -0.192080  KCAL/ANGSTROM
    111         37  C    CARTESIAN Z    -1.039502     0.168111  KCAL/ANGSTROM
    112         38  H    CARTESIAN X     3.494826    -0.078534  KCAL/ANGSTROM
    113         38  H    CARTESIAN Y    -5.138615    -0.168735  KCAL/ANGSTROM
    114         38  H    CARTESIAN Z     0.699629     0.181047  KCAL/ANGSTROM
    115         39  H    CARTESIAN X     5.190350     0.145601  KCAL/ANGSTROM
    116         39  H    CARTESIAN Y    -5.456491    -0.058586  KCAL/ANGSTROM
    117         39  H    CARTESIAN Z     0.283787    -0.550948  KCAL/ANGSTROM
    118         40  H    CARTESIAN X     3.894995     0.228588  KCAL/ANGSTROM
    119         40  H    CARTESIAN Y    -6.170501     0.063086  KCAL/ANGSTROM
    120         40  H    CARTESIAN Z    -0.692204    -1.232622  KCAL/ANGSTROM
    121         41  C    CARTESIAN X     5.132827    -0.118907  KCAL/ANGSTROM
    122         41  C    CARTESIAN Y    -4.205323    -0.223564  KCAL/ANGSTROM
    123         41  C    CARTESIAN Z    -2.226667    -0.284951  KCAL/ANGSTROM
    124         42  H    CARTESIAN X     3.131577     0.335985  KCAL/ANGSTROM
    125         42  H    CARTESIAN Y    -3.982334    -0.578002  KCAL/ANGSTROM
    126         42  H    CARTESIAN Z    -1.471493    -0.046644  KCAL/ANGSTROM
    127         43  H    CARTESIAN X     6.168533    -0.313251  KCAL/ANGSTROM
    128         43  H    CARTESIAN Y    -4.301436    -0.183197  KCAL/ANGSTROM
    129         43  H    CARTESIAN Z    -1.895343    -0.156629  KCAL/ANGSTROM
    130         44  H    CARTESIAN X     5.072325    -0.005883  KCAL/ANGSTROM
    131         44  H    CARTESIAN Y    -3.327734     0.221141  KCAL/ANGSTROM
    132         44  H    CARTESIAN Z    -2.881679    -0.220688  KCAL/ANGSTROM
    133         45  H    CARTESIAN X     4.874047    -0.437474  KCAL/ANGSTROM
    134         45  H    CARTESIAN Y    -5.090384    -0.594303  KCAL/ANGSTROM
    135         45  H    CARTESIAN Z    -2.812866     0.463947  KCAL/ANGSTROM




   ATOM   CHEMICAL          X               Y               Z
  NUMBER   SYMBOL      (ANGSTROMS)     (ANGSTROMS)     (ANGSTROMS)
 
     1       C         -0.24620454  *  -4.08675441  *  -0.01914883  *
     2       C          0.89112898  *  -3.31043160  *   0.06637659  *
     3       C         -1.01980890  *  -4.07226619  *  -1.19879876  *
     4       H         -0.56850921  *  -4.72000739  *   0.80034797  *
     5       C         -0.62248142  *  -3.25762177  *  -2.25687408  *
     6       H         -1.90158799  *  -4.68739464  *  -1.27207048  *
     7       C          0.52155838  *  -2.47342046  *  -2.18655445  *
     8       H         -1.21294179  *  -3.23899006  *  -3.16926331  *
     9       C          1.36183929  *  -2.46085330  *  -1.02690724  *
    10       H          0.82100481  *  -1.85034965  *  -3.02100165  *
    11       O          1.71610643  *  -3.25691948  *   1.19562928  *
    12       C          1.20046660  *  -3.86623509  *   2.39456407  *
    13       H          0.21354995  *  -3.47052757  *   2.64725508  *
    14       H          1.94522347  *  -3.56857271  *   3.13970494  *
    15       H          1.16538227  *  -4.95235883  *   2.27637905  *
    16       N          2.42050528  *  -1.63567284  *  -1.05471440  *
    17       C          3.56472217  *  -1.65253538  *  -0.27258472  *
    18       C          3.97689227  *  -0.44171579  *   0.37754436  *
    19       C          4.47224210  *  -2.76709270  *  -0.27152156  *
    20       C          5.21057706  *  -0.39469380  *   1.02747960  *
    21       C          5.69061208  *  -2.66946906  *   0.39857764  *
    22       C          6.06877543  *  -1.49619051  *   1.05684935  *
    23       H          6.37023039  *  -3.51975432  *   0.40451147  *
    24       H          7.01327515  *  -1.43856489  *   1.57726718  *
    25       H          5.51900129  *   0.52217407  *   1.52687006  *
    26       C          3.14806241  *   0.83188517  *   0.40451587  *
    27       C          2.96634616  *   1.42387727  *  -1.00176137  *
    28       H          3.92844891  *   1.67136058  *  -1.45522096  *
    29       H          2.33333857  *   2.31188308  *  -0.98200301  *
    30       H          2.48312522  *   0.67864079  *  -1.65792237  *
    31       C          1.79140051  *   0.61910102  *   1.09104370  *
    32       H          1.22514951  *   1.54973598  *   1.15413057  *
    33       H          1.92006356  *   0.20004325  *   2.09255858  *
    34       H          1.19103185  *  -0.10650602  *   0.51924595  *
    35       H          3.70648506  *   1.59475554  *   1.01071341  *
    36       C          4.19748285  *  -5.28077707  *  -0.13393829  *
    37       C          4.16502448  *  -4.03823423  *  -1.03950177  *
    38       H          3.49482605  *  -5.13861532  *   0.69962874  *
    39       H          5.19035015  *  -5.45649073  *   0.28378739  *
    40       H          3.89499451  *  -6.17050075  *  -0.69220401  *
    41       C          5.13282738  *  -4.20532293  *  -2.22666703  *
    42       H          3.13157747  *  -3.98233381  *  -1.47149348  *
    43       H          6.16853263  *  -4.30143612  *  -1.89534316  *
    44       H          5.07232549  *  -3.32773384  *  -2.88167898  *
    45       H          4.87404672  *  -5.09038352  *  -2.81286593  *

                             CARTESIAN COORDINATES

   1    C       -0.246204544    -4.086754412    -0.019148827
   2    C        0.891128978    -3.310431597     0.066376588
   3    C       -1.019808901    -4.072266188    -1.198798758
   4    H       -0.568509208    -4.720007389     0.800347969
   5    C       -0.622481423    -3.257621774    -2.256874084
   6    H       -1.901587991    -4.687394641    -1.272070478
   7    C        0.521558380    -2.473420460    -2.186554450
   8    H       -1.212941792    -3.238990063    -3.169263309
   9    C        1.361839289    -2.460853295    -1.026907241
  10    H        0.821004813    -1.850349647    -3.021001648
  11    O        1.716106429    -3.256919477     1.195629279
  12    C        1.200466600    -3.866235090     2.394564069
  13    H        0.213549950    -3.470527572     2.647255084
  14    H        1.945223468    -3.568572713     3.139704940
  15    H        1.165382273    -4.952358827     2.276379054
  16    N        2.420505280    -1.635672840    -1.054714404
  17    C        3.564722168    -1.652535375    -0.272584722
  18    C        3.976892268    -0.441715793     0.377544363
  19    C        4.472242103    -2.767092696    -0.271521564
  20    C        5.210577061    -0.394693801     1.027479604
  21    C        5.690612076    -2.669469059     0.398577635
  22    C        6.068775429    -1.496190505     1.056849350
  23    H        6.370230386    -3.519754320     0.404511465
  24    H        7.013275151    -1.438564887     1.577267181
  25    H        5.519001287     0.522174073     1.526870056
  26    C        3.148062410     0.831885173     0.404515871
  27    C        2.966346163     1.423877271    -1.001761371
  28    H        3.928448908     1.671360581    -1.455220959
  29    H        2.333338572     2.311883079    -0.982003011
  30    H        2.483125218     0.678640795    -1.657922372
  31    C        1.791400506     0.619101017     1.091043701
  32    H        1.225149509     1.549735978     1.154130572
  33    H        1.920063557     0.200043248     2.092558581
  34    H        1.191031851    -0.106506025     0.519245949
  35    H        3.706485057     1.594755545     1.010713408
  36    C        4.197482847    -5.280777069    -0.133938288
  37    C        4.165024484    -4.038234228    -1.039501773
  38    H        3.494826045    -5.138615321     0.699628742
  39    H        5.190350150    -5.456490728     0.283787395
  40    H        3.894994508    -6.170500754    -0.692204006
  41    C        5.132827382    -4.205322926    -2.226667031
  42    H        3.131577470    -3.982333811    -1.471493478
  43    H        6.168532627    -4.301436119    -1.895343163
  44    H        5.072325492    -3.327733839    -2.881678984
  45    H        4.874046717    -5.090383516    -2.812865934


           Empirical Formula: C19 H24 N O  =    45 atoms



      MOLECULAR POINT GROUP   :   C1  


                  EIGENVALUES  
 -26.80612 -26.41256 -25.65959 -25.12345 -24.91035 -24.24074 -22.27026 -21.86346
 -21.37930 -21.24123 -20.89131 -20.54750 -19.94558 -18.11216 -17.99277 -16.98468
 -16.67208 -15.77498 -14.95332 -14.34527 -13.47382 -12.79208 -12.56634 -12.33401
 -12.17476 -11.68483 -11.58330 -11.30739 -11.25170 -10.91478 -10.85455 -10.61530
 -10.55991 -10.22713 -10.16243  -9.71043  -9.64159  -9.45818  -9.33900  -9.23790
  -9.10252  -8.68558  -8.41130  -8.40589  -8.19777  -8.16873  -7.91555  -7.84409
  -7.70136  -7.59247  -6.65057  -6.39496  -5.58942  -5.28169  -4.27523  -3.12126
   4.25563   4.27050   4.55676   4.96901   5.44444   6.49140   6.84937   7.53099
   7.59762   7.68065   7.81152   7.86279   7.96326   7.97766   8.22172   8.28645
   8.35876   8.55551   8.57470   8.67466   8.79786   8.84550   8.93309   9.01430
   9.05993   9.06715   9.12277   9.20339   9.21958   9.25720   9.31765   9.34686
   9.40655   9.43955   9.49473   9.51038   9.61790   9.65253   9.70357   9.80759
   9.88969   9.90474   9.95233  10.05977  10.11845  10.16417  10.17424  10.37722
  10.52589  10.62063  10.67901  11.14743


              NET ATOMIC CHARGES AND DIPOLE CONTRIBUTIONS

  ATOM NO.   TYPE          CHARGE      No. of ELECS.   s-Pop       p-Pop       
    1          C          -0.176974        4.1770     1.09374     3.08324
    2          C           0.016031        3.9840     1.10037     2.88360
    3          C          -0.352152        4.3522     1.08325     3.26890
    4          H           0.119168        0.8808     0.88083
    5          C          -0.035028        4.0350     1.09150     2.94353
    6          H           0.122383        0.8776     0.87762
    7          C          -0.405484        4.4055     1.09789     3.30760
    8          H           0.098256        0.9017     0.90174
    9          C           0.349405        3.6506     1.07353     2.57707
   10          H           0.156468        0.8435     0.84353
   11          O          -0.381731        6.3817     1.84807     4.53366
   12          C          -0.180594        4.1806     1.09445     3.08615
   13          H           0.120492        0.8795     0.87951
   14          H           0.140260        0.8597     0.85974
   15          H           0.115321        0.8847     0.88468
   16          N          -0.626345        5.6263     1.68306     3.94329
   17          C           0.348667        3.6513     1.08350     2.56784
   18          C          -0.170173        4.1702     1.10536     3.06481
   19          C          -0.186038        4.1860     1.10735     3.07869
   20          C          -0.110051        4.1101     1.10039     3.00967
   21          C          -0.086497        4.0865     1.09814     2.98836
   22          C          -0.308237        4.3082     1.09136     3.21687
   23          H           0.114382        0.8856     0.88562
   24          H           0.123426        0.8766     0.87657
   25          H           0.112290        0.8877     0.88771
   26          C           0.068366        3.9316     1.06959     2.86205
   27          C          -0.507254        4.5073     1.08946     3.41779
   28          H           0.134503        0.8655     0.86550
   29          H           0.124004        0.8760     0.87600
   30          H           0.197043        0.8030     0.80296
   31          C          -0.503186        4.5032     1.08879     3.41440
   32          H           0.123413        0.8766     0.87659
   33          H           0.141197        0.8588     0.85880
   34          H           0.186865        0.8131     0.81314
   35          H           0.078668        0.9213     0.92133
   36          C          -0.495306        4.4953     1.08943     3.40588
   37          C           0.040071        3.9599     1.07323     2.88670
   38          H           0.163906        0.8361     0.83609
   39          H           0.133063        0.8669     0.86694
   40          H           0.130884        0.8691     0.86912
   41          C          -0.494770        4.4948     1.08957     3.40520
   42          H           0.140253        0.8597     0.85975
   43          H           0.136119        0.8639     0.86388
   44          H           0.154329        0.8457     0.84567
   45          H           0.130590        0.8694     0.86941
 DIPOLE           X         Y         Z       TOTAL
 POINT-CHG.     1.118    -0.819     2.311     2.694
 HYBRID         0.373    -0.631     0.761     1.057
 SUM            1.491    -1.450     3.072     3.710


          ATOMIC ORBITAL ELECTRON POPULATIONS

     Atom    s        px        py        pz   
    1  C   1.09374   1.00720   1.04052   1.03552
    2  C   1.10037   0.95922   1.06753   0.85685
    3  C   1.08325   1.10215   1.14814   1.01861
    4  H   0.88083
    5  C   1.09150   0.97998   0.96063   1.00292
    6  H   0.87762
    7  C   1.09789   1.06719   1.16234   1.07806
    8  H   0.90174
    9  C   1.07353   0.87803   0.80754   0.89149
   10  H   0.84353
   11  O   1.84807   1.49893   1.78007   1.25467
   12  C   1.09445   1.10577   1.07495   0.90542
   13  H   0.87951
   14  H   0.85974
   15  H   0.88468
   16  N   1.68306   1.15022   1.38675   1.40632
   17  C   1.08350   0.87589   0.90028   0.79167
   18  C   1.10536   0.99555   1.00620   1.06306
   19  C   1.10735   1.00263   1.00877   1.06729
   20  C   1.10039   0.98419   1.01967   1.00581
   21  C   1.09814   1.00229   1.00689   0.97919
   22  C   1.09136   1.07267   1.01325   1.13095
   23  H   0.88562
   24  H   0.87657
   25  H   0.88771
   26  C   1.06959   0.94759   0.96901   0.94545
   27  C   1.08946   1.15727   1.15479   1.10573
   28  H   0.86550
   29  H   0.87600
   30  H   0.80296
   31  C   1.08879   1.10004   1.16085   1.15351
   32  H   0.87659
   33  H   0.85880
   34  H   0.81314
   35  H   0.92133
   36  C   1.08943   1.16257   1.09912   1.14419
   37  C   1.07323   1.04834   0.91422   0.92414
   38  H   0.83609
   39  H   0.86694
   40  H   0.86912
   41  C   1.08957   1.12984   1.15855   1.11681
   42  H   0.85975
   43  H   0.86388
   44  H   0.84567
   45  H   0.86941

          NUMBER OF ITERATIONS =  24
          LOCALISATION VALUE =  28.951151168

   NUMBER OF CENTERS              (COMPOSITION OF ORBITALS)


    1.0109   O  11 99.46
    2.0492   N  16 54.84   C   9 43.26   C  17  1.24
    1.8965   O  11 62.58   C   2 36.83
    2.0154   C   2 50.60   C   1 49.00
    1.9272   O  11 60.53   C  12 39.05
    2.0252   N  16 54.90   C  17 43.86
    2.0218   C  20 50.16   C  18 49.29
    2.0203   C  21 49.87   C  19 49.62
    2.0158   C  22 50.12   C  20 49.49
    2.0162   C  22 50.32   C  21 49.27
    2.0174   C   7 50.18   C   5 49.38
    2.0136   C   3 50.33   C   5 49.33
    2.0389   C   2 52.94   C   9 45.85
    2.0345   C  18 50.83   C  17 48.29
    2.0322   C  19 51.17   C  17 47.98
    2.0266   C   1 50.33   C   3 49.01
    2.0442   C   7 49.71   C   9 49.20
    1.9735   C  12 56.03   H  15 43.91
    1.9708   C  12 56.28   H  13 43.67
    1.9849   C  12 56.53   H  14 42.92
    2.0238   C  19 51.56   C  37 47.77
    1.9853   C  22 55.97   H  24 43.64
    1.9920   C  20 55.42   H  25 44.14
    1.9949   C   1 55.62   H   4 43.81
    2.0236   C  18 51.79   C  26 47.53
    1.9921   C  21 55.51   H  23 44.03
    1.9979   C   5 54.71   H   8 44.86
    1.9862   C   3 55.90   H   6 43.70
    1.9751   C  41 56.39   H  45 43.39
    1.9751   C  36 56.40   H  40 43.38
    1.9687   C  41 56.77   H  43 43.09
    1.9708   C  36 56.61   H  39 43.24
    2.0070   C  36 53.38   C  37 46.19
    2.0072   C  41 53.68   C  37 45.83
    1.9793   C  31 56.02   H  32 43.75
    1.9794   C  27 56.04   H  29 43.72
    2.0117   C  31 52.60   C  26 46.95
    2.0126   C  27 52.60   C  26 46.93
    1.9633   C  41 57.55   H  44 42.21
    1.9739   C  27 56.57   H  28 43.20
    1.9708   C  31 56.90   H  33 42.86
    2.0033   C  26 53.77   H  35 45.83
    1.9585   C  36 58.02   H  38 41.71
    1.9753   C   7 57.42   H  10 42.02
    1.9805   C  37 56.76   H  42 42.75
    1.1214   N  16 94.37   C  17  3.17
    1.9390   C  31 59.30   H  34 40.50
    1.9326   C  27 59.80   H  30 39.98
    1.0894   O  11 95.79   C   1  1.44   C   2  1.35
    2.3720   C   2 51.69   C   1 38.72   C   9  6.18   C   5  2.58
    1.6739   N  16 74.87   C   9 18.78   C  17  3.81
    2.5827   C  18 54.01   C  20 27.34   C  17 13.90   C  21  3.73
    2.5811   C  19 54.31   C  21 26.65   C  17 14.14   C  20  3.80
    2.4638   C  22 58.10   C  21 18.23   C  20 18.23   C  17  4.26
    2.2836   C   7 61.21   C   5 21.65   C   9 12.51   C   1  2.48
    2.3008   C   3 60.80   C   5 23.05   C   1 10.23   C   9  3.09   C   2  2.11



                     LOCALIZED ORBITALS 






    ROOT NO.    1           2           3           4           5           6

           -17.97168   -17.45263   -17.32296   -16.84694   -16.68062   -16.34974
  
  
  S  C   1   0.02495    -0.01421     0.02598     0.41496    -0.01699     0.00276
 PX  C   1   0.02272    -0.01339     0.01146     0.46868    -0.00743     0.00129
 PY  C   1   0.02199    -0.01347     0.01670     0.31055    -0.01678     0.00283
 PZ  C   1  -0.00167    -0.00689    -0.01133     0.04126    -0.00457     0.00154
  
  S  C   2  -0.02063     0.02399    -0.30690     0.47680    -0.01135    -0.02117
 PX  C   2   0.02953    -0.01147    -0.27477    -0.42746    -0.03899    -0.01024
 PY  C   2   0.01753     0.00416     0.00742    -0.30981    -0.01967    -0.01011
 PZ  C   2  -0.00088    -0.03046    -0.44559    -0.00144     0.01486     0.02035
  
  S  C   3  -0.00361    -0.00277    -0.01660    -0.01034     0.00316    -0.00020
 PX  C   3  -0.00155    -0.00526    -0.01160     0.01276     0.00171     0.00252
 PY  C   3   0.00027     0.00359     0.00182     0.01319     0.00001    -0.00395
 PZ  C   3  -0.00488     0.00107    -0.02211    -0.01080     0.00375    -0.00106
  
  S  H   4   0.00118     0.00617     0.00835    -0.01362     0.00045    -0.00298
  
  S  C   5  -0.00119    -0.01337    -0.00349    -0.00826    -0.00030    -0.00535
 PX  C   5   0.00081    -0.01141    -0.00114     0.00134    -0.00273    -0.00675
 PY  C   5  -0.00032    -0.01552    -0.00046     0.00539     0.00264    -0.00095
 PZ  C   5  -0.00142    -0.00035    -0.00214    -0.00312     0.00130     0.00241
  
  S  H   6   0.00370    -0.00196     0.00576     0.02587    -0.00194    -0.00019
  
  S  C   7   0.00137     0.01838    -0.01378    -0.00173    -0.00439     0.02558
 PX  C   7   0.00011    -0.00454    -0.01445    -0.00120    -0.00290     0.00924
 PY  C   7   0.00039    -0.01319    -0.00065    -0.00098    -0.00201     0.00200
 PZ  C   7   0.00220     0.01006    -0.01683     0.00077    -0.00489     0.02709
  
  S  H   8   0.00016     0.00431    -0.00271     0.00430     0.00001     0.00390
  
  S  C   9  -0.00404    -0.40407     0.02128    -0.02712     0.01994    -0.01912
 PX  C   9  -0.00020    -0.46523    -0.01695    -0.01540    -0.00889     0.00865
 PY  C   9   0.00173    -0.22857    -0.01817    -0.00583    -0.01703    -0.05808
 PZ  C   9  -0.00106    -0.02497     0.00668    -0.01842     0.01019     0.04350
  
  S  H  10  -0.00023     0.00426     0.00499     0.00266     0.00177    -0.00014
  
  S  O  11   0.89178     0.00389    -0.26476    -0.00232     0.23846    -0.00035
 PX  O  11   0.38806    -0.00611     0.52564     0.00458    -0.37505     0.00046
 PY  O  11   0.22002    -0.00079     0.09794    -0.00205    -0.34239    -0.00020
 PZ  O  11   0.01795    -0.00541     0.51945     0.01302     0.53901    -0.00025
  
  S  C  12  -0.01666    -0.00056     0.00927    -0.00869     0.25741    -0.00010
 PX  C  12   0.01958    -0.00054     0.02821    -0.00207     0.15900    -0.00026
 PY  C  12   0.01124    -0.00055     0.01131    -0.00281     0.22604    -0.00038
 PZ  C  12  -0.00017     0.00205     0.00637     0.00575    -0.49788     0.00007
  
  S  H  13   0.02484    -0.00023     0.01365     0.00413    -0.00896    -0.00020
  
  S  H  14  -0.00693     0.00059    -0.02151     0.00384    -0.00341     0.00037
  
  S  H  15   0.02265     0.00039     0.00770     0.00388    -0.00801    -0.00048
  
  S  N  16  -0.00033    -0.31933     0.00401     0.00978     0.00145     0.30347
 PX  N  16  -0.00018     0.40956    -0.00204    -0.01350     0.00098     0.43683
 PY  N  16   0.00027     0.51832    -0.00383    -0.01477     0.00035    -0.12168
 PZ  N  16  -0.00271    -0.10001     0.00327     0.00303     0.00256     0.50125
  
  S  C  17   0.00025     0.02530    -0.00198    -0.00061    -0.00187     0.38954
 PX  C  17  -0.00469     0.01428     0.00275    -0.00298     0.00705    -0.49572
 PY  C  17  -0.00359     0.06261    -0.00048    -0.00444     0.00481    -0.05972
 PZ  C  17   0.00557    -0.08732     0.00279     0.01026    -0.00649    -0.19378
  
  S  C  18   0.00060    -0.01678     0.00026     0.00087    -0.00052    -0.02069
 PX  C  18   0.00106    -0.00783     0.00011     0.00109    -0.00057    -0.01293
 PY  C  18   0.00012     0.01055    -0.00033     0.00001     0.00005     0.01942
 PZ  C  18  -0.00330     0.02692    -0.00036    -0.00342     0.00241    -0.00475
  
  S  C  19  -0.00068     0.00998     0.00025    -0.00053     0.00078    -0.02464
 PX  C  19   0.00030    -0.01785    -0.00054     0.00196     0.00024    -0.00140
 PY  C  19   0.00031    -0.00068     0.00001     0.00081     0.00030    -0.02111
 PZ  C  19  -0.00137     0.01997     0.00066    -0.00303     0.00063    -0.01526
  
  S  C  20   0.00004     0.00379    -0.00023    -0.00027    -0.00011     0.01471
 PX  C  20  -0.00008    -0.00914     0.00023     0.00126    -0.00001    -0.01562
 PY  C  20   0.00003    -0.00273    -0.00008     0.00068    -0.00014     0.00472
 PZ  C  20  -0.00020     0.00798     0.00028    -0.00165     0.00055    -0.01419
  
  S  C  21   0.00040    -0.00063    -0.00023    -0.00007    -0.00051     0.01484
 PX  C  21   0.00055    -0.00398     0.00049     0.00085    -0.00045    -0.01350
 PY  C  21   0.00087    -0.00310     0.00020     0.00056    -0.00076    -0.00237
 PZ  C  21  -0.00260     0.00860    -0.00026    -0.00142     0.00249    -0.01724
  
  S  C  22   0.00001     0.00042    -0.00004    -0.00001    -0.00004     0.00282
 PX  C  22  -0.00105     0.00731    -0.00000    -0.00138     0.00076    -0.00519
 PY  C  22  -0.00080     0.00618    -0.00003    -0.00106     0.00056    -0.00253
 PZ  C  22   0.00194    -0.01472     0.00003     0.00262    -0.00130     0.00506
  
  S  H  23  -0.00001     0.00114     0.00016    -0.00002     0.00008    -0.00569
  
  S  H  24   0.00009     0.00014    -0.00005    -0.00003    -0.00008     0.00232
  
  S  H  25   0.00014    -0.00277     0.00015     0.00024    -0.00008    -0.00530
  
  S  C  26   0.00000    -0.00139     0.00013     0.00016     0.00004    -0.00497
 PX  C  26   0.00009    -0.00165     0.00016     0.00020    -0.00011    -0.00274
 PY  C  26  -0.00000    -0.00016    -0.00019    -0.00002    -0.00006     0.00562
 PZ  C  26  -0.00014     0.00165    -0.00007    -0.00031     0.00020    -0.00128
  
  S  C  27  -0.00023    -0.00194     0.00006     0.00008     0.00014     0.00063
 PX  C  27  -0.00004     0.00273    -0.00007    -0.00033     0.00003    -0.00102
 PY  C  27   0.00017     0.00122    -0.00010    -0.00017    -0.00008    -0.00113
 PZ  C  27  -0.00028     0.00546    -0.00012    -0.00073     0.00019    -0.00188
  
  S  H  28  -0.00001     0.00048    -0.00002    -0.00005     0.00001     0.00027
  
  S  H  29   0.00009     0.00058    -0.00000    -0.00003    -0.00004     0.00005
  
  S  H  30   0.00001     0.00959    -0.00006    -0.00058    -0.00001    -0.00443
  
  S  C  31  -0.00032    -0.00033     0.00031     0.00031     0.00002    -0.00100
 PX  C  31   0.00054    -0.00274    -0.00028     0.00023    -0.00032     0.00245
 PY  C  31   0.00033    -0.00130    -0.00039    -0.00005    -0.00003     0.00090
 PZ  C  31  -0.00018    -0.00003    -0.00032    -0.00027    -0.00001     0.00012
  
  S  H  32   0.00011     0.00023    -0.00004    -0.00009    -0.00004     0.00069
  
  S  H  33   0.00042    -0.00005     0.00017     0.00005    -0.00009     0.00059
  
  S  H  34   0.00063    -0.00247    -0.00059    -0.00017    -0.00046     0.00282
  
  S  H  35   0.00008    -0.00000     0.00005     0.00004    -0.00008     0.00157
  
  S  C  36  -0.00129    -0.00152     0.00008    -0.00011    -0.00035     0.00091
 PX  C  36   0.00133    -0.00034    -0.00012     0.00023     0.00055     0.00027
 PY  C  36   0.00007    -0.00228     0.00010     0.00030    -0.00037     0.00122
 PZ  C  36  -0.00173     0.00157     0.00023    -0.00051    -0.00046    -0.00103
  
  S  C  37  -0.00051     0.00536     0.00066    -0.00004     0.00046    -0.00689
 PX  C  37   0.00025    -0.00781    -0.00043     0.00049     0.00021     0.00206
 PY  C  37   0.00021    -0.00182     0.00024     0.00022    -0.00020    -0.00441
 PZ  C  37   0.00023    -0.00244    -0.00031    -0.00020    -0.00034    -0.00280
  
  S  H  38   0.00304    -0.00052     0.00076     0.00073     0.00026     0.00046
  
  S  H  39   0.00017     0.00064    -0.00019     0.00008    -0.00009    -0.00036
  
  S  H  40   0.00020     0.00016    -0.00002     0.00001    -0.00004    -0.00048
  
  S  C  41  -0.00002     0.00098    -0.00014    -0.00034    -0.00019    -0.00010
 PX  C  41  -0.00005    -0.00117     0.00016     0.00036     0.00020     0.00010
 PY  C  41   0.00001     0.00026    -0.00002    -0.00006    -0.00004    -0.00012
 PZ  C  41   0.00006     0.00106    -0.00021    -0.00048    -0.00029     0.00014
  
  S  H  42   0.00054    -0.01236    -0.00068     0.00057    -0.00040     0.00493
  
  S  H  43  -0.00006     0.00093     0.00008    -0.00004    -0.00000    -0.00033
  
  S  H  44   0.00002     0.00012    -0.00002    -0.00007     0.00001     0.00027
  
  S  H  45   0.00007    -0.00084     0.00001     0.00012    -0.00005    -0.00016




    ROOT NO.    7           8           9          10          11          12

           -16.15220   -16.11004   -16.01498   -15.98974   -15.77296   -15.73793
  
  
  S  C   1   0.00024     0.00000    -0.00001    -0.00004     0.00906     0.00864
 PX  C   1  -0.00009     0.00103     0.00009     0.00005    -0.00485    -0.01468
 PY  C   1   0.00096    -0.00122    -0.00015    -0.00015    -0.00009    -0.01668
 PZ  C   1   0.00039    -0.00065    -0.00007    -0.00007    -0.00578     0.00995
  
  S  C   2   0.00115     0.00200    -0.00006     0.00014     0.00660     0.00754
 PX  C   2   0.00077     0.00227     0.00005     0.00015     0.00551    -0.00589
 PY  C   2   0.00106    -0.00017    -0.00013    -0.00010     0.00289    -0.00476
 PZ  C   2  -0.00038    -0.00151     0.00008    -0.00024    -0.00026     0.00270
  
  S  C   3   0.00013     0.00006    -0.00000    -0.00001     0.01143    -0.41754
 PX  C   3   0.00059    -0.00145    -0.00013    -0.00018    -0.01814    -0.16067
 PY  C   3  -0.00062     0.00205     0.00017     0.00024    -0.00517    -0.33457
 PZ  C   3  -0.00035     0.00100     0.00009     0.00011    -0.01511     0.43726
  
  S  H   4   0.00004     0.00017    -0.00001     0.00003    -0.00391    -0.02794
  
  S  C   5   0.00093     0.00064    -0.00006     0.00002    -0.41821    -0.41790
 PX  C   5   0.00060     0.00188     0.00004     0.00015    -0.46173     0.15927
 PY  C   5   0.00139    -0.00111    -0.00021    -0.00015    -0.32238     0.32828
 PZ  C   5   0.00026    -0.00080    -0.00009    -0.00007    -0.04191    -0.43071
  
  S  H   6   0.00014     0.00007    -0.00001     0.00000    -0.02806     0.01023
  
  S  C   7  -0.00263    -0.00199     0.00019    -0.00015    -0.42657     0.01054
 PX  C   7  -0.00194     0.00020     0.00025     0.00004     0.46931    -0.00748
 PY  C   7   0.00069    -0.00222    -0.00012    -0.00030     0.31546     0.00466
 PZ  C   7  -0.00222    -0.00299     0.00011    -0.00027     0.01081    -0.02078
  
  S  H   8  -0.00061    -0.00046     0.00004    -0.00002     0.01342     0.01559
  
  S  C   9   0.00652     0.00192    -0.00033    -0.00022     0.01791     0.00860
 PX  C   9   0.01016    -0.00273    -0.00094    -0.00075     0.02095    -0.00435
 PY  C   9   0.00252     0.01241     0.00037     0.00092     0.02173     0.00038
 PZ  C   9  -0.00405     0.00212     0.00043     0.00034    -0.00966    -0.00632
  
  S  H  10  -0.00047    -0.00034     0.00003     0.00000     0.00966    -0.02723
  
  S  O  11  -0.00025    -0.00055    -0.00004     0.00001    -0.00124     0.00013
 PX  O  11   0.00043     0.00078     0.00003    -0.00004     0.00231     0.00064
 PY  O  11   0.00008     0.00065     0.00005     0.00003     0.00052    -0.00039
 PZ  O  11   0.00021    -0.00015    -0.00004     0.00003     0.00217     0.00250
  
  S  C  12   0.00018     0.00075     0.00004    -0.00000     0.00044    -0.00040
 PX  C  12   0.00018     0.00044     0.00002     0.00000     0.00018    -0.00099
 PY  C  12   0.00016     0.00077     0.00006     0.00001     0.00032    -0.00142
 PZ  C  12  -0.00042    -0.00145    -0.00012     0.00003    -0.00086     0.00269
  
  S  H  13   0.00007    -0.00010    -0.00001    -0.00000     0.00008    -0.00026
  
  S  H  14  -0.00010    -0.00018     0.00003    -0.00004    -0.00046    -0.00087
  
  S  H  15  -0.00002     0.00009     0.00001     0.00002     0.00004    -0.00037
  
  S  N  16  -0.01372    -0.01150     0.00114    -0.00086    -0.01530    -0.00064
 PX  N  16  -0.01214    -0.01363     0.00157    -0.00200     0.00802     0.00102
 PY  N  16   0.00961     0.00324    -0.00042     0.00046     0.01806     0.00110
 PZ  N  16  -0.01732    -0.01903     0.00177    -0.00175    -0.01013    -0.00003
  
  S  C  17   0.02031     0.02047    -0.00721     0.00775     0.00919     0.00019
 PX  C  17  -0.02597    -0.02134    -0.00007     0.00271    -0.01064    -0.00040
 PY  C  17   0.01214    -0.01429    -0.00568    -0.00564     0.00154    -0.00001
 PZ  C  17  -0.00970    -0.01531    -0.00159    -0.00117    -0.00821    -0.00004
  
  S  C  18  -0.42801     0.00444    -0.01505     0.00777    -0.00209    -0.00009
 PX  C  18  -0.49612    -0.00282     0.00469     0.00655    -0.00041     0.00001
 PY  C  18  -0.02143    -0.00224    -0.02553     0.00158     0.00191     0.00005
 PZ  C  18  -0.25126    -0.00184    -0.00707     0.00399     0.00209     0.00013
  
  S  C  19   0.00465    -0.42964    -0.00779     0.01527    -0.00026     0.00004
 PX  C  19  -0.00390    -0.49007    -0.00695     0.00693    -0.00084    -0.00003
 PY  C  19   0.00175    -0.03959     0.00062    -0.02557    -0.00090     0.00002
 PZ  C  19  -0.00073    -0.26444    -0.00294    -0.00775     0.00094     0.00004
  
  S  C  20  -0.42225     0.00880     0.41582     0.00924     0.00099     0.00003
 PX  C  20   0.49763     0.00527     0.34321     0.01585    -0.00150     0.00000
 PY  C  20   0.02417    -0.00469    -0.45175     0.01402    -0.00005     0.00003
 PZ  C  20   0.27407    -0.00019     0.01033     0.01323    -0.00023    -0.00012
  
  S  C  21   0.00871    -0.42024    -0.00925    -0.41560     0.00063     0.00001
 PX  C  21   0.00268     0.49530    -0.02057    -0.14408    -0.00096    -0.00001
 PY  C  21   0.00538     0.03082     0.01167    -0.47458    -0.00022     0.00000
 PZ  C  21   0.00317     0.27537    -0.00682    -0.27210    -0.00031    -0.00002
  
  S  C  22   0.01134     0.01161     0.41304    -0.41437     0.00021     0.00000
 PX  C  22   0.01396     0.01926    -0.35230     0.15517     0.00026    -0.00001
 PY  C  22   0.01427    -0.01279     0.45429     0.48740     0.00034    -0.00000
 PZ  C  22   0.01256     0.00538    -0.00757     0.26426    -0.00086     0.00001
  
  S  H  23  -0.00404     0.01259     0.02880     0.01479    -0.00023     0.00000
  
  S  H  24  -0.02756    -0.02779    -0.01070     0.01073     0.00018     0.00001
  
  S  H  25   0.01373    -0.00404    -0.01360    -0.02886    -0.00059    -0.00002
  
  S  C  26   0.02054    -0.00138     0.01833    -0.00099    -0.00040     0.00000
 PX  C  26  -0.01130    -0.00111     0.01107    -0.00052    -0.00026    -0.00001
 PY  C  26  -0.01445     0.00203    -0.02148     0.00282     0.00045     0.00001
 PZ  C  26  -0.00973     0.00020    -0.00174     0.00079     0.00011    -0.00001
  
  S  C  27  -0.00652    -0.00013    -0.00160     0.00025    -0.00043     0.00007
 PX  C  27   0.00085     0.00020     0.00023     0.00007     0.00042    -0.00006
 PY  C  27   0.00445     0.00020     0.00081    -0.00014     0.00050    -0.00008
 PZ  C  27  -0.01155     0.00032    -0.00266     0.00033     0.00067    -0.00007
  
  S  H  28  -0.00168     0.00001    -0.00061    -0.00004     0.00006     0.00000
  
  S  H  29   0.00189    -0.00010     0.00200    -0.00020     0.00005    -0.00000
  
  S  H  30  -0.00076     0.00048    -0.00051     0.00016     0.00097    -0.00019
  
  S  C  31  -0.00754    -0.00004    -0.00177     0.00025    -0.00018     0.00005
 PX  C  31  -0.01148     0.00012    -0.00235     0.00033     0.00006    -0.00005
 PY  C  31  -0.00379     0.00011    -0.00091     0.00005     0.00014    -0.00005
 PZ  C  31   0.00779     0.00007     0.00166    -0.00015     0.00013    -0.00003
  
  S  H  32   0.00245    -0.00014     0.00207    -0.00023     0.00003    -0.00001
  
  S  H  33  -0.00195     0.00000    -0.00073    -0.00001     0.00003    -0.00000
  
  S  H  34  -0.00118     0.00021    -0.00038     0.00016     0.00016    -0.00010
  
  S  H  35   0.00710     0.00037    -0.00151    -0.00116    -0.00008     0.00001
  
  S  C  36   0.00031     0.00381    -0.00058    -0.00151    -0.00004     0.00004
 PX  C  36   0.00012     0.00042    -0.00067    -0.00144     0.00001    -0.00004
 PY  C  36   0.00033     0.00128     0.00012     0.00021    -0.00008    -0.00000
 PZ  C  36  -0.00022    -0.00168    -0.00023    -0.00023     0.00002     0.00004
  
  S  C  37  -0.00175     0.01205     0.00138    -0.01566    -0.00028     0.00012
 PX  C  37  -0.00052    -0.01196     0.00053    -0.00343    -0.00007    -0.00014
 PY  C  37  -0.00181     0.01499     0.00207    -0.02260    -0.00043     0.00000
 PZ  C  37  -0.00114     0.00120     0.00128    -0.01298    -0.00023    -0.00009
  
  S  H  38   0.00004    -0.00128     0.00002     0.00048    -0.00002    -0.00008
  
  S  H  39  -0.00005    -0.00154     0.00072     0.00263    -0.00001     0.00000
  
  S  H  40  -0.00019    -0.00187     0.00035    -0.00075    -0.00001    -0.00002
  
  S  C  41   0.00030     0.00341    -0.00042    -0.00110     0.00007    -0.00001
 PX  C  41  -0.00019    -0.00005    -0.00048    -0.00109    -0.00011     0.00001
 PY  C  41   0.00004    -0.00066     0.00005     0.00021    -0.00000     0.00001
 PZ  C  41   0.00039     0.00122    -0.00018    -0.00055     0.00015    -0.00003
  
  S  H  42   0.00000    -0.02105    -0.00057     0.00401    -0.00015    -0.00022
  
  S  H  43  -0.00003    -0.00217     0.00053     0.00220     0.00002     0.00001
  
  S  H  44   0.00004    -0.00116     0.00003     0.00044     0.00008    -0.00002
  
  S  H  45  -0.00017    -0.00175     0.00024    -0.00107    -0.00008    -0.00001




    ROOT NO.   13          14          15          16          17          18

           -15.72744   -15.70653   -15.69443   -15.53995   -15.43413   -14.51295
  
  
  S  C   1  -0.02057    -0.00102    -0.00010    -0.41632    -0.00254    -0.00562
 PX  C   1  -0.01023     0.00094     0.00307     0.30936     0.00149     0.01209
 PY  C   1   0.00487    -0.00411    -0.00406    -0.00843    -0.00570    -0.00272
 PZ  C   1  -0.02110    -0.00176    -0.00217     0.48391    -0.00289    -0.00777
  
  S  C   2   0.47051    -0.00054     0.00413     0.02470    -0.03253    -0.00158
 PX  C   2   0.21744     0.00045     0.00590     0.02095    -0.03543    -0.00283
 PY  C   2   0.33008    -0.00327    -0.00189    -0.00740    -0.00846     0.00905
 PZ  C   2  -0.38959    -0.00146    -0.00276     0.04813    -0.02349     0.00577
  
  S  C   3  -0.00417    -0.00031     0.00003    -0.40365    -0.00933     0.00236
 PX  C   3  -0.00129    -0.00339    -0.00462    -0.31303    -0.00237     0.00121
 PY  C   3   0.00088     0.00413     0.00631     0.00851    -0.00414     0.00139
 PZ  C   3  -0.00387     0.00209     0.00324    -0.47860     0.00438     0.00282
  
  S  H   4   0.02789     0.00023     0.00034     0.00929     0.00252     0.01120
  
  S  C   5  -0.00591    -0.00188     0.00056     0.01007    -0.01196    -0.00068
 PX  C   5  -0.00380     0.00056     0.00445    -0.01984    -0.00006    -0.00181
 PY  C   5  -0.00356    -0.00513    -0.00499    -0.00702    -0.00550     0.00352
 PZ  C   5  -0.00047    -0.00159    -0.00265    -0.01450     0.02591     0.00091
  
  S  H   6   0.00186    -0.00031     0.00003     0.01029     0.00354     0.00037
  
  S  C   7  -0.02099     0.00385    -0.00118     0.00923     0.40152     0.00004
 PX  C   7  -0.02272     0.00438     0.00422    -0.00547     0.32457     0.00166
 PY  C   7  -0.01096    -0.00507    -0.00677    -0.00387     0.00430    -0.00195
 PZ  C   7  -0.00949     0.00120    -0.00406     0.00010     0.48010    -0.00080
  
  S  H   8   0.00139     0.00092    -0.00028    -0.02975     0.02896     0.00052
  
  S  C   9   0.41151    -0.02154    -0.00123     0.00586     0.44535     0.00015
 PX  C   9  -0.13310    -0.03888    -0.01989     0.00056    -0.32513     0.00072
 PY  C   9  -0.30666     0.00443     0.03735    -0.00171     0.01264    -0.00138
 PZ  C   9   0.42114     0.01437     0.01260     0.00426    -0.43337    -0.00009
  
  S  H  10   0.02431     0.00080    -0.00017    -0.00404    -0.00465    -0.00005
  
  S  O  11  -0.01577     0.00013    -0.00151    -0.01240     0.01377    -0.00189
 PX  O  11   0.02631    -0.00053     0.00221     0.02401    -0.02515     0.00269
 PY  O  11   0.02096     0.00051     0.00208     0.00597    -0.00975    -0.00244
 PZ  O  11  -0.02520    -0.00071    -0.00067     0.01903    -0.00966    -0.00234
  
  S  C  12   0.02487     0.00037     0.00185    -0.00037    -0.00825     0.40071
 PX  C  12   0.02022     0.00003     0.00102     0.00192    -0.00660    -0.01273
 PY  C  12   0.02432     0.00042     0.00210     0.00324    -0.00834    -0.62496
 PZ  C  12  -0.05097    -0.00038    -0.00413    -0.00766     0.01850    -0.09467
  
  S  H  13   0.00237    -0.00030    -0.00024     0.00271    -0.00136    -0.00321
  
  S  H  14  -0.00247    -0.00004    -0.00002    -0.00043     0.00330    -0.00082
  
  S  H  15   0.00070     0.00015     0.00035     0.00238    -0.00043     0.66265
  
  S  N  16  -0.00663     0.01721    -0.00827    -0.00104    -0.01956    -0.00006
 PX  N  16   0.02224    -0.00481    -0.00753     0.00232    -0.02102    -0.00003
 PY  N  16   0.01584    -0.02679    -0.00431     0.00233     0.01351     0.00032
 PZ  N  16   0.00372     0.00953    -0.01933    -0.00067    -0.02779    -0.00026
  
  S  C  17  -0.00909    -0.43875     0.43843    -0.00046     0.03011     0.00001
 PX  C  17   0.01997    -0.14447     0.31977     0.00059    -0.03859    -0.00089
 PY  C  17   0.01134    -0.46444    -0.43048     0.00036    -0.00085    -0.00048
 PZ  C  17  -0.02209    -0.23193     0.00516    -0.00051    -0.01554     0.00150
  
  S  C  18   0.00075    -0.43185    -0.02499    -0.00003    -0.00396    -0.00003
 PX  C  18  -0.00280     0.18222     0.02547     0.00002    -0.00046     0.00017
 PY  C  18  -0.00302     0.46663    -0.00006    -0.00001     0.00432     0.00013
 PZ  C  18   0.00580     0.26615     0.01367     0.00013     0.00085    -0.00036
  
  S  C  19   0.00224     0.02488     0.43324     0.00006    -0.00133     0.00004
 PX  C  19  -0.00513    -0.02540    -0.37762    -0.00009     0.00002     0.00012
 PY  C  19  -0.00051    -0.00409     0.42592     0.00004    -0.00152     0.00018
 PZ  C  19   0.00702    -0.01207    -0.00380     0.00016    -0.00139    -0.00038
  
  S  C  20  -0.00038     0.01471    -0.00534    -0.00001     0.00241     0.00001
 PX  C  20  -0.00194    -0.00834     0.00470    -0.00010    -0.00255     0.00013
 PY  C  20  -0.00192     0.02238    -0.00024    -0.00008     0.00067     0.00011
 PZ  C  20   0.00511     0.00778     0.00196     0.00018    -0.00249    -0.00029
  
  S  C  21  -0.00063     0.00533    -0.01387    -0.00002     0.00169    -0.00001
 PX  C  21  -0.00098    -0.00156    -0.00399     0.00005    -0.00190     0.00014
 PY  C  21  -0.00104     0.00125     0.02248     0.00006    -0.00023     0.00014
 PZ  C  21   0.00367    -0.00726     0.01029    -0.00011    -0.00190    -0.00032
  
  S  C  22  -0.00018     0.00659    -0.00692    -0.00001     0.00055     0.00001
 PX  C  22   0.00323    -0.00355     0.00146     0.00005    -0.00088    -0.00020
 PY  C  22   0.00227     0.00472     0.00584     0.00003    -0.00033    -0.00015
 PZ  C  22  -0.00579     0.00130     0.00168    -0.00008     0.00065     0.00038
  
  S  H  23   0.00043    -0.00181     0.02890     0.00002    -0.00069     0.00002
  
  S  H  24  -0.00012    -0.00261     0.00266     0.00000     0.00041     0.00000
  
  S  H  25   0.00016    -0.02946     0.00177     0.00000    -0.00114    -0.00000
  
  S  C  26  -0.00001     0.01474     0.01534     0.00000    -0.00085    -0.00002
 PX  C  26  -0.00029     0.01816     0.01496    -0.00001    -0.00052     0.00004
 PY  C  26  -0.00051    -0.00051    -0.02055    -0.00002     0.00115     0.00001
 PZ  C  26   0.00082     0.00927     0.00038     0.00002    -0.00007    -0.00003
  
  S  C  27  -0.00016     0.00339    -0.00001    -0.00002    -0.00050    -0.00003
 PX  C  27   0.00071    -0.00119     0.00020     0.00003     0.00032     0.00000
 PY  C  27   0.00026    -0.00130    -0.00008     0.00003     0.00048     0.00002
 PZ  C  27   0.00160    -0.00034     0.00053     0.00004     0.00039    -0.00003
  
  S  H  28   0.00007    -0.00120    -0.00031     0.00001     0.00009    -0.00001
  
  S  H  29   0.00008    -0.00151     0.00136     0.00001     0.00005     0.00001
  
  S  H  30   0.00175    -0.00289     0.00046     0.00001     0.00079     0.00002
  
  S  C  31  -0.00171     0.00351     0.00008    -0.00005    -0.00037     0.00010
 PX  C  31   0.00017     0.00058     0.00042     0.00001     0.00063     0.00011
 PY  C  31   0.00103     0.00006     0.00019     0.00005     0.00052    -0.00001
 PZ  C  31   0.00123    -0.00123    -0.00008    -0.00001     0.00034     0.00012
  
  S  H  32   0.00029    -0.00179     0.00125     0.00003    -0.00007    -0.00000
  
  S  H  33   0.00005    -0.00137    -0.00041     0.00002     0.00006    -0.00023
  
  S  H  34   0.00288    -0.00169     0.00027    -0.00003     0.00127     0.00005
  
  S  H  35  -0.00005    -0.02141    -0.00480    -0.00000    -0.00004     0.00000
  
  S  C  36  -0.00105     0.00195     0.00720    -0.00024     0.00045    -0.00227
 PX  C  36   0.00072    -0.00001    -0.00009     0.00027    -0.00026     0.00229
 PY  C  36  -0.00046     0.00231     0.01049    -0.00007     0.00032    -0.00042
 PZ  C  36  -0.00048    -0.00248    -0.01101    -0.00032     0.00020    -0.00273
  
  S  C  37  -0.00390    -0.01631    -0.02159    -0.00001    -0.00202     0.00005
 PX  C  37   0.00368    -0.00899    -0.01929    -0.00001     0.00211     0.00022
 PY  C  37  -0.00014    -0.01789     0.00445     0.00001    -0.00103    -0.00005
 PZ  C  37   0.00354    -0.01407    -0.00900    -0.00001    -0.00011    -0.00013
  
  S  H  38   0.00120     0.00071     0.00224     0.00030    -0.00027     0.00539
  
  S  H  39  -0.00015     0.00063     0.00156     0.00005    -0.00023     0.00015
  
  S  H  40   0.00048    -0.00210    -0.00211     0.00004    -0.00013     0.00011
  
  S  C  41   0.00122     0.00159     0.00567     0.00002    -0.00020    -0.00020
 PX  C  41  -0.00121    -0.00188    -0.00821    -0.00004     0.00020     0.00020
 PY  C  41   0.00022    -0.00019    -0.00116     0.00001    -0.00006    -0.00003
 PZ  C  41   0.00184     0.00208     0.00982     0.00004    -0.00018    -0.00025
  
  S  H  42   0.00779    -0.00253    -0.00721    -0.00014     0.00359     0.00018
  
  S  H  43  -0.00037     0.00066     0.00140    -0.00001    -0.00010    -0.00003
  
  S  H  44   0.00029     0.00054     0.00236     0.00001     0.00008     0.00004
  
  S  H  45  -0.00012    -0.00197    -0.00160    -0.00001    -0.00001    -0.00001




    ROOT NO.   19          20          21          22          23          24

           -14.48909   -14.43698   -14.03076   -14.01568   -14.00627   -14.00035
  
  
  S  C   1  -0.00466     0.00065    -0.00026    -0.00002     0.00015     0.44519
 PX  C   1  -0.00165    -0.00427    -0.00033    -0.00008    -0.00011    -0.17200
 PY  C   1   0.01368    -0.00132    -0.00019     0.00003     0.00059    -0.34349
 PZ  C   1   0.00192     0.00190    -0.00000     0.00002     0.00025     0.45874
  
  S  C   2  -0.00598     0.03120    -0.00055    -0.00021     0.00019    -0.00988
 PX  C   2   0.00357     0.03150    -0.00102    -0.00021     0.00004     0.01084
 PY  C   2  -0.00836    -0.00018    -0.00017    -0.00006     0.00048    -0.01202
 PZ  C   2  -0.00619     0.04251    -0.00004     0.00006     0.00009     0.04155
  
  S  C   3   0.00205     0.00109    -0.00003    -0.00002     0.00005    -0.01681
 PX  C   3   0.00290     0.00091     0.00013     0.00006     0.00046    -0.01272
 PY  C   3  -0.00133    -0.00030    -0.00022    -0.00010    -0.00054    -0.01556
 PZ  C   3   0.00111     0.00222    -0.00013    -0.00005    -0.00028     0.01381
  
  S  H   4   0.00866    -0.00700     0.00003    -0.00001    -0.00002     0.66188
  
  S  C   5  -0.00068     0.00094    -0.00026    -0.00011     0.00033     0.01619
 PX  C   5   0.00185     0.00095    -0.00029    -0.00017     0.00004    -0.00867
 PY  C   5  -0.00179    -0.00120    -0.00020    -0.00002     0.00072    -0.01418
 PZ  C   5  -0.00162     0.00006     0.00001     0.00004     0.00019     0.01284
  
  S  H   6   0.00034    -0.00083    -0.00005    -0.00002     0.00006    -0.00536
  
  S  C   7  -0.00043     0.00273     0.00031     0.00029    -0.00076     0.00116
 PX  C   7  -0.00177     0.00238    -0.00018     0.00012    -0.00076    -0.00082
 PY  C   7   0.00212     0.00042     0.00033     0.00010     0.00062    -0.00042
 PZ  C   7   0.00065     0.00368     0.00035     0.00034    -0.00045     0.00030
  
  S  H   8   0.00040     0.00034     0.00012     0.00008    -0.00019    -0.00530
  
  S  C   9   0.00194    -0.00478    -0.00125    -0.00050     0.00267     0.02011
 PX  C   9  -0.00075     0.00235    -0.00248    -0.00046     0.00468    -0.00199
 PY  C   9  -0.00164     0.00524    -0.00222    -0.00087    -0.00008    -0.01074
 PZ  C   9   0.00168    -0.00258     0.00030     0.00010    -0.00175     0.02117
  
  S  H  10   0.00021    -0.00111     0.00017     0.00007    -0.00017     0.00204
  
  S  O  11  -0.00055    -0.01267     0.00038     0.00009    -0.00002    -0.00896
 PX  O  11  -0.00404     0.02577    -0.00059    -0.00011     0.00013     0.01587
 PY  O  11   0.00341     0.00531    -0.00036    -0.00007    -0.00005     0.00668
 PZ  O  11  -0.00412     0.02605     0.00007     0.00000     0.00008     0.00418
  
  S  C  12   0.40151     0.39738    -0.00043    -0.00010    -0.00002    -0.00507
 PX  C  12  -0.57243     0.44426    -0.00023    -0.00007     0.00001     0.00472
 PY  C  12   0.24409     0.18023    -0.00041    -0.00010    -0.00004     0.00771
 PZ  C  12   0.11963     0.42135     0.00090     0.00021     0.00002    -0.01608
  
  S  H  13   0.66081     0.00073     0.00006     0.00000     0.00004     0.00720
  
  S  H  14   0.00075     0.65514     0.00002     0.00002    -0.00001     0.00808
  
  S  H  15  -0.00315    -0.00077    -0.00002    -0.00000    -0.00002     0.00774
  
  S  N  16  -0.00003    -0.00088     0.00487     0.00126    -0.00344    -0.00205
 PX  N  16  -0.00009     0.00050     0.00459     0.00121    -0.00175     0.00410
 PY  N  16   0.00036     0.00050    -0.00365    -0.00065     0.00237     0.00445
 PZ  N  16  -0.00004    -0.00100     0.00522     0.00186    -0.00374    -0.00170
  
  S  C  17  -0.00004     0.00047     0.01933     0.00062     0.01880    -0.00062
 PX  C  17  -0.00009    -0.00105     0.02187     0.00212     0.00101     0.00237
 PY  C  17  -0.00027    -0.00028     0.01082     0.00010     0.02042     0.00189
 PZ  C  17   0.00002    -0.00010     0.02039     0.00086     0.00584    -0.00397
  
  S  C  18   0.00009     0.00001    -0.01693     0.01802    -0.01631    -0.00011
 PX  C  18   0.00006     0.00011     0.01219     0.01903    -0.00453    -0.00049
 PY  C  18  -0.00003     0.00010     0.01588     0.00528     0.02769    -0.00026
 PZ  C  18  -0.00026    -0.00037     0.01035     0.01107     0.00899     0.00116
  
  S  C  19  -0.00007    -0.00021    -0.41998     0.01784     0.00036     0.00026
 PX  C  19  -0.00015     0.00019     0.13182     0.02026     0.00140    -0.00086
 PY  C  19  -0.00006    -0.00009     0.48960    -0.00288     0.00073    -0.00024
 PZ  C  19   0.00008    -0.00029     0.28663     0.00926     0.00080     0.00123
  
  S  C  20  -0.00000     0.00005    -0.00260    -0.01874     0.44351     0.00002
 PX  C  20  -0.00011    -0.00011     0.00040     0.02032     0.16680    -0.00050
 PY  C  20  -0.00008    -0.00002     0.00197     0.00888     0.50448    -0.00035
 PZ  C  20   0.00019    -0.00003     0.00121     0.01465     0.27416     0.00093
  
  S  C  21   0.00006     0.00009     0.02118    -0.01897     0.01680    -0.00004
 PX  C  21   0.00008     0.00000    -0.00588     0.02379     0.00870    -0.00025
 PY  C  21   0.00009     0.00014     0.02601    -0.00621     0.01592    -0.00019
 PZ  C  21  -0.00031    -0.00044     0.00720     0.00973     0.01303     0.00056
  
  S  C  22   0.00000     0.00001    -0.01738     0.44901    -0.01890    -0.00001
 PX  C  22  -0.00003    -0.00015     0.00257     0.52371     0.01512     0.00060
 PY  C  22  -0.00003    -0.00011     0.02192     0.03166     0.01590     0.00044
 PZ  C  22   0.00005     0.00023     0.01033     0.28779     0.01294    -0.00111
  
  S  H  23  -0.00001    -0.00001     0.00750    -0.00497    -0.00535     0.00005
  
  S  H  24   0.00001     0.00005     0.00484     0.66059    -0.00553    -0.00000
  
  S  H  25   0.00002     0.00001    -0.00263    -0.00521     0.66442    -0.00003
  
  S  C  26   0.00003    -0.00001     0.00328    -0.00328    -0.01495    -0.00003
 PX  C  26  -0.00004    -0.00004     0.00329    -0.00102    -0.00711    -0.00007
 PY  C  26  -0.00001     0.00005    -0.00384     0.00422    -0.00016    -0.00004
 PZ  C  26   0.00000    -0.00002     0.00022     0.00091    -0.00431     0.00014
  
  S  C  27  -0.00003    -0.00006     0.00027     0.00073     0.00107    -0.00004
 PX  C  27   0.00001     0.00000    -0.00015    -0.00007    -0.00038     0.00014
 PY  C  27   0.00003     0.00004    -0.00029    -0.00046    -0.00119     0.00008
 PZ  C  27  -0.00002    -0.00005    -0.00018     0.00113     0.00307     0.00030
  
  S  H  28   0.00001     0.00001    -0.00014     0.00014     0.00121     0.00002
  
  S  H  29   0.00001     0.00001     0.00023    -0.00047    -0.00043     0.00002
  
  S  H  30   0.00001    -0.00000    -0.00051     0.00021    -0.00030     0.00025
  
  S  C  31  -0.00028    -0.00038     0.00041     0.00082     0.00133    -0.00022
 PX  C  31   0.00006     0.00009     0.00023     0.00116     0.00254    -0.00005
 PY  C  31   0.00018     0.00027    -0.00013     0.00034     0.00068     0.00011
 PZ  C  31  -0.00012    -0.00033    -0.00028    -0.00076    -0.00204     0.00011
  
  S  H  32   0.00004     0.00008     0.00015    -0.00053    -0.00039     0.00005
  
  S  H  33   0.00033     0.00058    -0.00014     0.00020     0.00103     0.00002
  
  S  H  34   0.00026     0.00020    -0.00031     0.00024    -0.00056     0.00019
  
  S  H  35   0.00000     0.00001    -0.00246    -0.00119     0.01319    -0.00002
  
  S  C  36   0.00062    -0.00104     0.01204    -0.00016     0.00016    -0.00041
 PX  C  36  -0.00063     0.00107    -0.00560     0.00007     0.00024     0.00034
 PY  C  36   0.00014    -0.00016    -0.00384    -0.00034    -0.00008    -0.00015
 PZ  C  36   0.00073    -0.00130    -0.01590     0.00023     0.00013    -0.00030
  
  S  C  37  -0.00018    -0.00016    -0.36100    -0.00256     0.00136    -0.00026
 PX  C  37   0.00001     0.00010    -0.14119    -0.00035     0.00064     0.00017
 PY  C  37   0.00001    -0.00003    -0.48180    -0.00393     0.00206    -0.00006
 PZ  C  37   0.00020    -0.00002    -0.30879    -0.00208     0.00138     0.00027
  
  S  H  38  -0.00178     0.00226     0.00275     0.00010    -0.00007     0.00047
  
  S  H  39   0.00000     0.00010     0.00428    -0.00003    -0.00029     0.00004
  
  S  H  40   0.00000     0.00011    -0.02369    -0.00021     0.00014     0.00012
  
  S  C  41   0.00011    -0.00004     0.01188    -0.00013     0.00012     0.00016
 PX  C  41  -0.00013     0.00001    -0.01233     0.00012     0.00023    -0.00018
 PY  C  41   0.00002    -0.00000    -0.01226    -0.00005    -0.00002     0.00003
 PZ  C  41   0.00016    -0.00002    -0.00029    -0.00020     0.00004     0.00024
  
  S  H  42   0.00014     0.00010     0.00622     0.00200     0.00009     0.00030
  
  S  H  43  -0.00001    -0.00002     0.00459     0.00008    -0.00024    -0.00002
  
  S  H  44  -0.00000     0.00002     0.00260     0.00009    -0.00006     0.00005
  
  S  H  45   0.00001     0.00000    -0.02376    -0.00022     0.00017    -0.00004




    ROOT NO.   25          26          27          28          29          30

           -13.96261   -13.92840   -13.77140   -13.67879   -13.54070   -13.47646
  
  
  S  C   1  -0.00009    -0.00001     0.01697    -0.01873     0.00008    -0.00008
 PX  C   1  -0.00022     0.00051    -0.01412    -0.01995     0.00025    -0.00023
 PY  C   1   0.00000    -0.00065    -0.00325    -0.01753    -0.00015     0.00019
 PZ  C   1   0.00006    -0.00034    -0.01739     0.00492    -0.00009     0.00006
  
  S  C   2  -0.00048     0.00060    -0.00132     0.02102    -0.00018    -0.00009
 PX  C   2  -0.00021     0.00092    -0.00330    -0.01356     0.00003    -0.00023
 PY  C   2  -0.00044    -0.00034    -0.00112    -0.01317    -0.00022     0.00013
 PZ  C   2   0.00012    -0.00055    -0.00201     0.00849     0.00012    -0.00074
  
  S  C   3  -0.00004     0.00002    -0.02072     0.45016     0.00001    -0.00004
 PX  C   3   0.00002    -0.00080    -0.02056    -0.48891    -0.00016     0.00008
 PY  C   3  -0.00007     0.00111    -0.00659    -0.34032     0.00023    -0.00013
 PZ  C   3  -0.00002     0.00055    -0.01573    -0.03917     0.00012    -0.00011
  
  S  H   4  -0.00001     0.00006    -0.00498    -0.00524    -0.00006     0.00012
  
  S  C   5  -0.00030     0.00017     0.44116    -0.01888     0.00005    -0.00001
 PX  C   5  -0.00048     0.00083    -0.32475    -0.02227     0.00012    -0.00005
 PY  C   5  -0.00005    -0.00076     0.00935    -0.01195    -0.00002     0.00004
 PZ  C   5   0.00010    -0.00045    -0.49691    -0.00962    -0.00003     0.00002
  
  S  H   6  -0.00004     0.00002    -0.00545     0.66105     0.00002     0.00001
  
  S  C   7   0.00083    -0.00050    -0.02094     0.01721    -0.00003    -0.00014
 PX  C   7   0.00062     0.00047    -0.00860    -0.01920     0.00020    -0.00022
 PY  C   7  -0.00013    -0.00110     0.00524    -0.01135    -0.00028     0.00013
 PZ  C   7   0.00076    -0.00099    -0.02631    -0.00366    -0.00017    -0.00009
  
  S  H   8   0.00020    -0.00011     0.66975    -0.00507    -0.00002    -0.00002
  
  S  C   9  -0.00235     0.00030     0.02115     0.00031     0.00066    -0.00036
 PX  C   9  -0.00300    -0.00237    -0.01102    -0.00188     0.00030    -0.00019
 PY  C   9  -0.00262     0.00551     0.00455    -0.00109     0.00114    -0.00057
 PZ  C   9   0.00083     0.00158    -0.01946    -0.00100     0.00048    -0.00042
  
  S  H  10   0.00018    -0.00008    -0.00557    -0.00409    -0.00003     0.00001
  
  S  O  11   0.00014    -0.00019     0.00161    -0.00168     0.00001     0.00024
 PX  O  11  -0.00024     0.00021    -0.00301     0.00466    -0.00005    -0.00052
 PY  O  11  -0.00009     0.00031    -0.00111     0.00120     0.00006    -0.00021
 PZ  O  11   0.00002    -0.00003    -0.00110     0.00411     0.00007     0.00005
  
  S  C  12  -0.00015     0.00020    -0.00067    -0.00040    -0.00007    -0.00012
 PX  C  12  -0.00010     0.00012    -0.00088    -0.00000    -0.00004    -0.00019
 PY  C  12  -0.00016     0.00028    -0.00117    -0.00015     0.00000    -0.00024
 PZ  C  12   0.00032    -0.00050     0.00249     0.00029     0.00010     0.00057
  
  S  H  13   0.00000    -0.00003    -0.00027     0.00049     0.00000    -0.00011
  
  S  H  14   0.00003    -0.00002     0.00013    -0.00059    -0.00001    -0.00010
  
  S  H  15  -0.00001     0.00008    -0.00018     0.00033     0.00005    -0.00014
  
  S  N  16   0.00532    -0.00236    -0.00368     0.00132    -0.00061    -0.00006
 PX  N  16   0.00355    -0.00319     0.00056    -0.00100    -0.00020    -0.00052
 PY  N  16  -0.00213     0.00135     0.00325    -0.00168     0.00017     0.00000
 PZ  N  16   0.00621    -0.00411    -0.00238     0.00070     0.00038    -0.00103
  
  S  C  17   0.01881     0.01984     0.00358    -0.00065    -0.00193    -0.00234
 PX  C  17   0.02737     0.00962    -0.00437     0.00048     0.00091    -0.00452
 PY  C  17  -0.01104    -0.01948     0.00019    -0.00036     0.00283    -0.00086
 PZ  C  17   0.01283    -0.00425    -0.00259     0.00119    -0.00695     0.00361
  
  S  C  18  -0.42237     0.00024    -0.00064     0.00021     0.00146     0.00162
 PX  C  18   0.33737     0.00203    -0.00015     0.00012    -0.00028    -0.00157
 PY  C  18  -0.47506    -0.00014     0.00062    -0.00014    -0.00098    -0.00199
 PZ  C  18   0.00081     0.00042     0.00046    -0.00042    -0.00212     0.00012
  
  S  C  19  -0.01709    -0.01568    -0.00017    -0.00000     0.01530     0.01581
 PX  C  19   0.01831     0.00854    -0.00016     0.00019    -0.00921    -0.00457
 PY  C  19  -0.01320    -0.02833    -0.00034     0.00015    -0.01950    -0.01529
 PZ  C  19   0.00230    -0.00760     0.00009    -0.00029    -0.00563    -0.01556
  
  S  C  20   0.02137     0.01677     0.00037    -0.00009     0.00036     0.00041
 PX  C  20   0.00396     0.01555    -0.00049     0.00020    -0.00224     0.00191
 PY  C  20  -0.02617    -0.01563     0.00004     0.00005    -0.00187     0.00097
 PZ  C  20  -0.00795     0.00432    -0.00023    -0.00011     0.00417    -0.00365
  
  S  C  21  -0.00269     0.44453     0.00027    -0.00005     0.00029     0.00091
 PX  C  21   0.00120     0.37382    -0.00039     0.00015     0.00328    -0.00096
 PY  C  21  -0.00196    -0.46658    -0.00009     0.00008     0.00111    -0.00274
 PZ  C  21  -0.00007     0.00269    -0.00017    -0.00013    -0.00488     0.00423
  
  S  C  22  -0.01710    -0.01935     0.00009    -0.00002     0.00071     0.00044
 PX  C  22   0.01146     0.02144    -0.00001    -0.00014     0.00010    -0.00012
 PY  C  22  -0.02116    -0.01307     0.00005    -0.00012    -0.00096    -0.00102
 PZ  C  22  -0.00160     0.00532    -0.00015     0.00029    -0.00090    -0.00007
  
  S  H  23  -0.00258     0.66359    -0.00011     0.00002    -0.00217    -0.00312
  
  S  H  24   0.00484    -0.00561     0.00007    -0.00002    -0.00033    -0.00033
  
  S  H  25   0.00794    -0.00534    -0.00020     0.00007     0.00020     0.00018
  
  S  C  26  -0.35844     0.00167    -0.00014     0.00004    -0.00034    -0.00035
 PX  C  26  -0.29617     0.00160    -0.00010     0.00004    -0.00035    -0.00037
 PY  C  26   0.50823    -0.00203     0.00018    -0.00004     0.00047     0.00048
 PZ  C  26   0.02870     0.00010     0.00002    -0.00003    -0.00000    -0.00000
  
  S  C  27   0.01210    -0.00009    -0.00004     0.00004    -0.00008     0.00004
 PX  C  27  -0.00789     0.00007     0.00005    -0.00006    -0.00001     0.00002
 PY  C  27   0.01058     0.00008     0.00004    -0.00006     0.00007    -0.00002
 PZ  C  27   0.01012    -0.00001     0.00009    -0.00012    -0.00010     0.00009
  
  S  H  28   0.00164    -0.00007     0.00001    -0.00001     0.00000     0.00002
  
  S  H  29  -0.02421     0.00023     0.00000    -0.00000     0.00001    -0.00008
  
  S  H  30   0.00454     0.00013     0.00009    -0.00012     0.00000     0.00003
  
  S  C  31   0.01209    -0.00002    -0.00002     0.00004     0.00003    -0.00008
 PX  C  31   0.00057     0.00004     0.00001     0.00001     0.00007    -0.00013
 PY  C  31   0.01653     0.00002     0.00001    -0.00003     0.00001    -0.00001
 PZ  C  31  -0.00368     0.00005     0.00002    -0.00005    -0.00001     0.00005
  
  S  H  32  -0.02441     0.00019    -0.00001    -0.00001    -0.00007     0.00001
  
  S  H  33   0.00282    -0.00007     0.00001     0.00001     0.00002     0.00000
  
  S  H  34   0.00366     0.00010     0.00005    -0.00004     0.00003    -0.00002
  
  S  H  35   0.01184    -0.00045    -0.00001     0.00002     0.00028     0.00028
  
  S  C  36  -0.00087    -0.00661     0.00005    -0.00002    -0.00703     0.37545
 PX  C  36   0.00002    -0.00682    -0.00006     0.00004     0.00260    -0.18132
 PY  C  36  -0.00126     0.00278     0.00001     0.00002    -0.00107    -0.51435
[...]
 PZ  C  12  -0.00430    -0.00802    -0.00085    -0.00385    -0.00108    -0.00002
  
  S  H  13   0.00160     0.00057    -0.00000     0.00021     0.00042     0.00004
  
  S  H  14   0.00070    -0.00093    -0.00004    -0.00043     0.00007    -0.00001
  
  S  H  15   0.00356     0.00022     0.00006     0.00096     0.00004    -0.00006
  
  S  N  16  -0.00020    -0.00889    -0.00208     0.80023    -0.00243    -0.00593
 PX  N  16   0.00023     0.00179    -0.00092     0.03752     0.00097     0.00079
 PY  N  16  -0.00008     0.00727     0.00677     0.35636     0.00159     0.00578
 PZ  N  16   0.00055    -0.00510     0.00149    -0.41827    -0.00206    -0.00237
  
  S  C  17   0.00058     0.00651    -0.01037    -0.00120     0.00018     0.00260
 PX  C  17   0.00236    -0.00885    -0.00819     0.03814    -0.00146    -0.00543
 PY  C  17   0.00118    -0.00015     0.00726     0.07885     0.00014    -0.00160
 PZ  C  17  -0.00346    -0.00410    -0.00218    -0.15492    -0.00270    -0.00151
  
  S  C  18  -0.00036    -0.00095     0.00250    -0.00507    -0.00576    -0.00725
 PX  C  18   0.00058     0.00022    -0.00080    -0.01954     0.00102     0.00386
 PY  C  18   0.00053     0.00120    -0.00163    -0.01260    -0.00575    -0.00521
 PZ  C  18  -0.00039     0.00022    -0.00215     0.04669     0.00097    -0.00291
  
  S  C  19  -0.00485    -0.00042    -0.00912     0.01754     0.00028    -0.00019
 PX  C  19   0.00140     0.00026    -0.02908    -0.03390    -0.00015    -0.00042
 PY  C  19   0.00347    -0.00043     0.00955    -0.00113     0.00043    -0.00046
 PZ  C  19   0.00445    -0.00025    -0.00875     0.04665    -0.00025     0.00063
  
  S  C  20  -0.00005     0.00056    -0.00047     0.00167     0.00150     0.00189
 PX  C  20  -0.00115    -0.00078    -0.00114    -0.01099    -0.00163    -0.00415
 PY  C  20  -0.00080    -0.00001     0.00026    -0.00731    -0.00028    -0.00191
 PZ  C  20   0.00229    -0.00027     0.00086     0.01682    -0.00294     0.00091
  
  S  C  21   0.00015     0.00044     0.01653    -0.00197    -0.00011     0.00007
 PX  C  21   0.00162    -0.00051    -0.01696    -0.00721    -0.00060     0.00034
 PY  C  21   0.00134     0.00001     0.00414    -0.00529    -0.00058     0.00025
 PZ  C  21  -0.00336    -0.00050    -0.00990     0.01814     0.00082    -0.00160
  
  S  C  22  -0.00019     0.00012    -0.00313    -0.00056    -0.00026    -0.00031
 PX  C  22  -0.00000    -0.00015    -0.00015     0.01857     0.00026     0.00042
 PY  C  22   0.00018    -0.00005     0.00361     0.01377    -0.00041    -0.00047
 PZ  C  22   0.00024     0.00011     0.00191    -0.03416    -0.00014    -0.00042
  
  S  H  23  -0.00028    -0.00020     0.00095     0.00257    -0.00001    -0.00014
  
  S  H  24   0.00008     0.00010     0.00259    -0.00003     0.00033     0.00042
  
  S  H  25  -0.00006    -0.00030    -0.00000    -0.00090     0.00061     0.00055
  
  S  C  26   0.00008    -0.00026    -0.00089    -0.00157    -0.00115    -0.00101
 PX  C  26   0.00007    -0.00012    -0.00077    -0.00191    -0.01173    -0.01296
 PY  C  26  -0.00010     0.00030     0.00118    -0.00195    -0.01867    -0.02250
 PZ  C  26   0.00004     0.00005    -0.00001     0.00303    -0.01879    -0.01334
  
  S  C  27  -0.00002    -0.00094    -0.00037    -0.00560    -0.00808     0.36826
 PX  C  27  -0.00001     0.00068     0.00020     0.00725    -0.00137    -0.30282
 PY  C  27   0.00002     0.00101     0.00037     0.00512     0.00452    -0.46800
 PZ  C  27  -0.00005     0.00092     0.00019     0.01383    -0.00387    -0.38946
  
  S  H  28  -0.00001     0.00005     0.00006     0.00102     0.00404     0.01092
  
  S  H  29   0.00003     0.00006     0.00001     0.00083     0.00078     0.00855
  
  S  H  30  -0.00002     0.00225     0.00052     0.02226     0.00359     0.63227
  
  S  C  31  -0.00000    -0.00029    -0.00024    -0.00481     0.36784    -0.00688
 PX  C  31   0.00008     0.00037     0.00031    -0.00316    -0.35699    -0.00339
 PY  C  31   0.00003     0.00033     0.00026     0.00105    -0.44142     0.00242
 PZ  C  31  -0.00002     0.00021     0.00018     0.00315    -0.36797     0.00291
  
  S  H  32  -0.00001     0.00004    -0.00003     0.00116     0.00824     0.00057
  
  S  H  33   0.00002     0.00004     0.00006     0.00005     0.01193     0.00312
  
  S  H  34   0.00005     0.00067     0.00054     0.00350     0.63643     0.00413
  
  S  H  35  -0.00006    -0.00012     0.00041     0.00067     0.02485     0.02491
  
  S  C  36   0.37321    -0.00005    -0.01080    -0.00231     0.00001     0.00000
 PX  C  36  -0.42927     0.00013    -0.01966     0.00018     0.00005     0.00003
 PY  C  36   0.10181     0.00006    -0.00161    -0.00305     0.00007     0.00001
 PZ  C  36   0.49626    -0.00018    -0.00613     0.00169    -0.00007    -0.00001
  
  S  C  37  -0.01066    -0.00076     0.40625    -0.00002    -0.00041    -0.00048
 PX  C  37  -0.02109     0.00065    -0.58491    -0.00242     0.00038     0.00048
 PY  C  37   0.00708    -0.00024     0.03722    -0.00056    -0.00013    -0.00023
 PZ  C  37   0.02968     0.00018    -0.24302     0.00197     0.00013     0.00008
  
  S  H  38   0.64583     0.00016    -0.00206    -0.00047     0.00006     0.00003
  
  S  H  39   0.00854    -0.00004     0.02656     0.00004    -0.00005    -0.00006
  
  S  H  40   0.00808     0.00001    -0.00414     0.00098     0.00001     0.00001
  
  S  C  41   0.01543    -0.00006    -0.01067     0.00342     0.00002     0.00003
 PX  C  41  -0.01615    -0.00004    -0.01721    -0.00381    -0.00002    -0.00007
 PY  C  41   0.00534    -0.00008     0.00075     0.00075    -0.00002    -0.00001
 PZ  C  41   0.01818     0.00015    -0.01096     0.00529     0.00008     0.00014
  
  S  H  42  -0.00163     0.00116     0.65382    -0.00147     0.00055     0.00054
  
  S  H  43   0.00005    -0.00003     0.02637     0.00075    -0.00004    -0.00005
  
  S  H  44  -0.00377     0.00020    -0.00260     0.00115     0.00006     0.00009
  
  S  H  45   0.00012     0.00002    -0.00370    -0.00138     0.00000    -0.00001




    ROOT NO.   49          50          51          52          53          54

            -8.25415    -6.92295    -6.90325    -6.80332    -6.78045    -6.77623
  
  
  S  C   1   0.00546     0.00290     0.00228    -0.00237    -0.00235     0.00196
 PX  C   1   0.07024    -0.33638     0.02438    -0.00578    -0.00598     0.00511
 PY  C   1  -0.08686     0.47203    -0.02959     0.00236     0.00292    -0.00221
 PZ  C   1  -0.04370     0.22631    -0.01395     0.00144     0.00183    -0.00148
  
  S  C   2   0.00042     0.00562    -0.00851     0.00890     0.01024    -0.00731
 PX  C   2  -0.05423    -0.39444     0.02359     0.00087     0.00257    -0.00070
 PY  C   2   0.09711     0.54566    -0.03788     0.01006     0.01030    -0.00893
 PZ  C   2   0.03424     0.25202    -0.00534    -0.00267    -0.00069     0.00204
  
  S  C   3  -0.00104     0.00034     0.00036    -0.00034    -0.00018     0.00024
 PX  C   3  -0.00825    -0.02215    -0.03380     0.00453     0.00491    -0.00429
 PY  C   3   0.01036     0.03116     0.04617    -0.00651    -0.00686     0.00605
 PZ  C   3   0.00409     0.01495     0.02346    -0.00319    -0.00321     0.00298
  
  S  H   4   0.00060    -0.00114    -0.00180     0.00178     0.00174    -0.00158
  
  S  C   5  -0.00004     0.00027    -0.00098    -0.00085    -0.00084     0.00063
 PX  C   5  -0.02735     0.08874     0.02507    -0.00382    -0.00406     0.00314
 PY  C   5   0.03756    -0.11988    -0.03577     0.00261     0.00298    -0.00229
 PZ  C   5   0.01862    -0.05991    -0.01692     0.00173     0.00191    -0.00148
  
  S  H   6   0.00069     0.00046    -0.00013    -0.00037    -0.00040     0.00034
  
  S  C   7   0.00179    -0.00319     0.00726    -0.00074    -0.00057     0.00084
 PX  C   7   0.01735    -0.01178     0.04122    -0.00606    -0.00605     0.00555
 PY  C   7  -0.02202     0.01189    -0.05508     0.00686     0.00726    -0.00631
 PZ  C   7  -0.00892     0.00232    -0.01982     0.00308     0.00348    -0.00259
  
  S  H   8   0.00010    -0.00037     0.00096     0.00020     0.00025    -0.00012
  
  S  C   9  -0.00810     0.00611     0.01824    -0.02219    -0.02224     0.01590
 PX  C   9   0.02611    -0.12667    -0.20061    -0.00806    -0.00611     0.00503
 PY  C   9  -0.03081     0.19134     0.32955    -0.03305    -0.03516     0.02563
 PZ  C   9  -0.02214     0.09554     0.19664    -0.01848    -0.01962     0.01398
  
  S  H  10  -0.00064    -0.00006    -0.00054     0.00047     0.00044    -0.00039
  
  S  O  11  -0.02961     0.00233    -0.00201    -0.00223    -0.00344     0.00189
 PX  O  11  -0.42273    -0.01083    -0.00029     0.00267     0.00583    -0.00245
 PY  O  11   0.84489     0.00738     0.00496     0.00041     0.00157    -0.00005
 PZ  O  11   0.25386     0.01175     0.00189    -0.00197    -0.00307     0.00173
  
  S  C  12  -0.00010    -0.00725     0.00190     0.00294     0.00444    -0.00262
 PX  C  12  -0.02629     0.00244    -0.00005     0.00220     0.00307    -0.00198
 PY  C  12   0.04915    -0.01534     0.00311     0.00290     0.00447    -0.00258
 PZ  C  12   0.01552     0.00759    -0.00356    -0.00722    -0.01057     0.00606
  
  S  H  13  -0.04446     0.01039    -0.00168     0.00029     0.00036    -0.00027
  
  S  H  14  -0.00541     0.00160    -0.00057     0.00031     0.00051     0.00001
  
  S  H  15   0.04914    -0.00771     0.00138    -0.00044    -0.00032     0.00043
  
  S  N  16   0.00155    -0.00368     0.07195     0.00813     0.00799    -0.00690
 PX  N  16  -0.00566     0.02429    -0.45975    -0.01014    -0.01013     0.00356
 PY  N  16   0.01002    -0.04734     0.52288    -0.00380    -0.00208     0.00128
 PZ  N  16   0.00600    -0.03195     0.50869    -0.03026    -0.02970     0.02529
  
  S  C  17  -0.00097     0.00579    -0.01433     0.00189    -0.00373    -0.00021
 PX  C  17  -0.00410     0.00489    -0.08349    -0.15220    -0.15725     0.08347
 PY  C  17  -0.00076    -0.00004     0.03077    -0.11655    -0.11886     0.06617
 PZ  C  17   0.01219    -0.02737     0.17325     0.31984     0.32013    -0.17669
  
  S  C  18  -0.00200     0.00551    -0.02659     0.01132     0.00284    -0.00154
 PX  C  18   0.00207    -0.00643     0.02064    -0.31567    -0.01946     0.03244
 PY  C  18   0.00311    -0.00912     0.03860    -0.22999    -0.01572     0.02393
 PZ  C  18  -0.00160     0.00495    -0.02100     0.62241     0.03275    -0.05888
  
  S  C  19   0.00221    -0.00728     0.03090    -0.00239     0.00321     0.00171
 PX  C  19   0.00130     0.00243    -0.00281    -0.01406    -0.30907     0.02706
 PY  C  19   0.00487    -0.01166     0.04260    -0.01587    -0.27452     0.02609
 PZ  C  19  -0.00442     0.00775    -0.02721     0.03050     0.61008    -0.05314
  
  S  C  20   0.00022    -0.00061     0.00470     0.00290    -0.00023     0.00058
 PX  C  20   0.00132    -0.00125     0.00381    -0.23190     0.08615    -0.18795
 PY  C  20   0.00118    -0.00146     0.00769    -0.16389     0.06056    -0.13389
 PZ  C  20  -0.00314     0.00399    -0.01830     0.43909    -0.16393     0.35921
  
  S  C  21  -0.00076     0.00184    -0.00460    -0.00026     0.00208    -0.00113
 PX  C  21   0.00105    -0.00466     0.01282     0.08425    -0.22556    -0.18651
 PY  C  21   0.00013    -0.00225     0.01008     0.06581    -0.17815    -0.14600
 PZ  C  21   0.00051     0.00345    -0.01559    -0.16091     0.42886     0.35522
  
  S  C  22  -0.00006     0.00013    -0.00046     0.00019    -0.00041    -0.00408
 PX  C  22  -0.00169     0.00394    -0.01388     0.00312     0.00344    -0.33425
 PY  C  22  -0.00104     0.00248    -0.00863     0.00165     0.00218    -0.24392
 PZ  C  22   0.00332    -0.00764     0.02680    -0.00620    -0.00516     0.64014
  
  S  H  23   0.00056    -0.00187     0.00493    -0.00047    -0.00038     0.00099
  
  S  H  24  -0.00007     0.00014     0.00031    -0.00004    -0.00012     0.00010
  
  S  H  25  -0.00035     0.00103    -0.00389     0.00023     0.00033    -0.00046
  
  S  C  26  -0.00004     0.00028    -0.00262    -0.00080     0.00007    -0.00007
 PX  C  26   0.00016    -0.00051     0.00046    -0.02702     0.00046     0.00330
 PY  C  26   0.00003     0.00005     0.00121    -0.01871     0.00007     0.00261
 PZ  C  26  -0.00020     0.00056    -0.00409     0.05154    -0.00095    -0.00656
  
  S  C  27  -0.00044     0.00150    -0.00616     0.01539     0.00143    -0.00273
 PX  C  27   0.00008    -0.00047     0.00140     0.00030     0.00036    -0.00002
 PY  C  27   0.00039    -0.00157     0.00359    -0.00278    -0.00112     0.00124
 PZ  C  27  -0.00020     0.00027    -0.00018     0.02024     0.00189    -0.00447
  
  S  H  28   0.00001    -0.00012     0.00034    -0.00122     0.00017    -0.00067
  
  S  H  29   0.00013    -0.00052     0.00137    -0.00536    -0.00113     0.00127
  
  S  H  30   0.00019    -0.00081     0.01069     0.00044     0.00025    -0.00060
  
  S  C  31  -0.00120    -0.00143    -0.00634    -0.01454    -0.00122     0.00250
 PX  C  31   0.00118    -0.00044     0.01210    -0.01626    -0.00219     0.00390
 PY  C  31   0.00095     0.00065     0.00739    -0.00795    -0.00022     0.00147
 PZ  C  31   0.00001     0.00108     0.00362     0.00725     0.00051    -0.00168
  
  S  H  32   0.00046    -0.00005     0.00159     0.00499     0.00119    -0.00129
  
  S  H  33   0.00098    -0.00016     0.00094     0.00184    -0.00018     0.00060
  
  S  H  34   0.00189     0.00301     0.02216    -0.00106    -0.00073     0.00088
  
  S  H  35  -0.00018    -0.00000     0.00063    -0.00059     0.00001     0.00019
  
  S  C  36   0.00523     0.00002     0.00120    -0.00089    -0.01524     0.00185
 PX  C  36  -0.00427    -0.00045    -0.00066     0.00083     0.00172    -0.00127
 PY  C  36   0.00108    -0.00155     0.00151    -0.00256    -0.01201     0.00394
 PZ  C  36   0.00504     0.00188    -0.00130     0.00138     0.01371    -0.00350
  
  S  C  37   0.00113     0.00514     0.01156     0.00035    -0.00209     0.00055
 PX  C  37   0.00055    -0.00654    -0.01212     0.00111    -0.02579     0.00314
 PY  C  37   0.00035    -0.00052     0.00201     0.00080    -0.02514     0.00372
 PZ  C  37  -0.00055    -0.00364    -0.00717     0.00078     0.05244    -0.00804
  
  S  H  38  -0.01108    -0.00199     0.00004     0.00016     0.00153     0.00023
  
  S  H  39  -0.00071    -0.00009     0.00198    -0.00033     0.00070     0.00078
  
  S  H  40  -0.00062    -0.00026    -0.00128     0.00000     0.00546     0.00025
  
  S  C  41  -0.00060    -0.00033    -0.00235     0.00079     0.01695    -0.00182
 PX  C  41   0.00072     0.00029     0.00262    -0.00248    -0.01418     0.00501
 PY  C  41  -0.00017    -0.00007    -0.00020     0.00114    -0.00242    -0.00052
 PZ  C  41  -0.00093    -0.00056    -0.00451     0.00137     0.01392    -0.00312
  
  S  H  42  -0.00040    -0.00951    -0.01925     0.00052    -0.00040    -0.00042
  
  S  H  43   0.00003     0.00074     0.00118     0.00033    -0.00173    -0.00104
  
  S  H  44  -0.00019    -0.00005    -0.00199    -0.00032    -0.00147    -0.00026
  
  S  H  45   0.00020    -0.00046     0.00047     0.00018    -0.00601    -0.00028




    ROOT NO.   55          56

            -6.28143    -6.25254
  
  
  S  C   1  -0.00007     0.00094
 PX  C   1   0.08595    -0.17455
 PY  C   1  -0.11888     0.24124
 PZ  C   1  -0.05755     0.11661
  
  S  C   2   0.00242    -0.00058
 PX  C   2  -0.04989     0.07871
 PY  C   2   0.07438    -0.11161
 PZ  C   2   0.03144    -0.04919
  
  S  C   3  -0.00003     0.00109
 PX  C   3   0.03496    -0.42881
 PY  C   3  -0.04766     0.58290
 PZ  C   3  -0.02403     0.29038
  
  S  H   4   0.00078    -0.00133
  
  S  C   5  -0.00207    -0.00104
 PX  C   5  -0.25676    -0.26359
 PY  C   5   0.34784     0.35982
 PZ  C   5   0.17189     0.17772
  
  S  H   6  -0.00007    -0.00009
  
  S  C   7  -0.01407     0.00233
 PX  C   7  -0.42145     0.03135
 PY  C   7   0.59551    -0.03923
 PZ  C   7   0.28217    -0.01627
  
  S  H   8  -0.00090     0.00043
  
  S  C   9  -0.00018    -0.00321
 PX  C   9  -0.17429     0.08756
 PY  C   9   0.27507    -0.13715
 PZ  C   9   0.13813    -0.06681
  
  S  H  10   0.00009     0.00022
  
  S  O  11   0.00031    -0.00133
 PX  O  11   0.00599    -0.00311
 PY  O  11  -0.00988     0.00908
 PZ  O  11  -0.00194     0.00049
  
  S  C  12  -0.00088     0.00221
 PX  C  12  -0.00125     0.00168
 PY  C  12  -0.00020     0.00278
 PZ  C  12   0.00244    -0.00491
  
  S  H  13   0.00223    -0.00327
  
  S  H  14   0.00012    -0.00027
  
  S  H  15  -0.00221     0.00325
  
  S  N  16  -0.00481     0.00382
 PX  N  16   0.02778    -0.02161
 PY  N  16  -0.05830     0.04141
 PZ  N  16  -0.04058     0.02841
  
  S  C  17   0.00833    -0.00538
 PX  C  17   0.00562    -0.00409
 PY  C  17  -0.00124    -0.00046
 PZ  C  17  -0.03522     0.02472
  
  S  C  18   0.00683    -0.00514
 PX  C  18  -0.00782     0.00633
 PY  C  18  -0.01121     0.00884
 PZ  C  18   0.00579    -0.00482
  
  S  C  19  -0.00940     0.00687
 PX  C  19   0.00288    -0.00219
 PY  C  19  -0.01452     0.01135
 PZ  C  19   0.00928    -0.00768
  
  S  C  20  -0.00073     0.00057
 PX  C  20  -0.00172     0.00130
 PY  C  20  -0.00188     0.00141
 PZ  C  20   0.00502    -0.00400
  
  S  C  21   0.00238    -0.00174
 PX  C  21  -0.00570     0.00457
 PY  C  21  -0.00280     0.00216
 PZ  C  21   0.00391    -0.00330
  
  S  C  22   0.00023    -0.00017
 PX  C  22   0.00474    -0.00401
 PY  C  22   0.00298    -0.00250
 PZ  C  22  -0.00929     0.00781
  
  S  H  23  -0.00231     0.00189
  
  S  H  24   0.00017    -0.00014
  
  S  H  25   0.00128    -0.00105
  
  S  C  26   0.00033    -0.00023
 PX  C  26  -0.00061     0.00053
 PY  C  26  -0.00003    -0.00005
 PZ  C  26   0.00073    -0.00050
  
  S  C  27   0.00172    -0.00144
 PX  C  27  -0.00050     0.00045
 PY  C  27  -0.00176     0.00157
 PZ  C  27   0.00047    -0.00031
  
  S  H  28  -0.00013     0.00012
  
  S  H  29  -0.00064     0.00053
  
  S  H  30  -0.00054     0.00055
  
  S  C  31  -0.00124     0.00072
 PX  C  31  -0.00085     0.00098
 PY  C  31   0.00050    -0.00001
 PZ  C  31   0.00102    -0.00054
  
  S  H  32  -0.00010     0.00010
  
  S  H  33  -0.00022     0.00021
  
  S  H  34   0.00183    -0.00094
  
  S  H  35   0.00001    -0.00013
  
  S  C  36  -0.00114     0.00085
 PX  C  36  -0.00005    -0.00002
 PY  C  36  -0.00187     0.00147
 PZ  C  36   0.00127    -0.00109
  
  S  C  37   0.00517    -0.00279
 PX  C  37  -0.00793     0.00439
 PY  C  37  -0.00072     0.00058
 PZ  C  37  -0.00314     0.00187
  
  S  H  38  -0.00041     0.00038
  
  S  H  39   0.00044    -0.00018
  
  S  H  40   0.00008    -0.00014
  
  S  C  41   0.00001     0.00003
 PX  C  41   0.00014    -0.00014
 PY  C  41   0.00000     0.00001
 PZ  C  41  -0.00016     0.00007
  
  S  H  42  -0.00854     0.00353
  
  S  H  43   0.00080    -0.00054
  
  S  H  44  -0.00012     0.00001
  
  S  H  45  -0.00059     0.00042

          BONDING CONTRIBUTION OF EACH M.O.

  0.0324  1.9770  1.8442  1.9806  1.8993  1.9599  1.9951  1.9949  1.9967  1.9966
  1.9987  1.9953  1.9488  1.9775  1.9663  2.0047  1.9934  1.9606  1.9586  1.9716
  1.9870  1.9703  1.9736  1.9750  1.9863  1.9732  1.9796  1.9715  1.9677  1.9676
  1.9614  1.9633  1.9836  1.9818  1.9715  1.9714  1.9887  1.9888  1.9550  1.9659
  1.9624  1.9850  1.9490  1.9590  1.9618  0.3326  1.9275  1.9197  0.2392  1.8397
  1.2850  1.9417  1.9453  1.8262  1.7493  1.7206 -2.0764 -2.0534 -2.2160 -2.1562
 -1.9280 -2.0448 -2.1312 -1.9256 -1.9221 -1.9687 -1.9509 -2.0159 -1.9893 -1.9614
 -2.0223 -2.0207 -1.9943 -2.0329 -1.9785 -1.9659 -1.9951 -1.9652 -1.9873 -1.9578
 -1.9542 -1.9686 -1.9771 -1.9715 -1.9524 -1.9659 -2.0064 -1.9951 -1.9710 -1.9975
 -2.0065 -1.9919 -1.9689 -1.9860 -1.9878 -1.9956 -2.0086 -2.0131 -1.9629 -1.9563
 -1.9852 -1.9856 -1.9366 -1.9745 -1.9252 -1.9118 -1.9662 -1.8971

 **********************
 *                    *
 * JOB ENDED NORMALLY *
 *                    *
 **********************



 TOTAL JOB TIME:             1.36 SECONDS

 == MOPAC DONE ==
