 *******************************************************************************
 ** Site#: 14762        For non-commercial use only    Version 17.165L 64BITS **
 *******************************************************************************
 ** Cite this program as: MOPAC2016, Version: 17.165L, James J. P. Stewart,   **
 ** Stewart Computational Chemistry, web: HTTP://OpenMOPAC.net. Days left: 226**
 *******************************************************************************
 **                                                                           **
 **                                MOPAC2016                                  **
 **                                                                           **
 *******************************************************************************

                              PM6 CALCULATION RESULTS


 *******************************************************************************
 *  CALCULATION DONE:                                Tue Oct 31 16:34:35 2017  *
 *  PM6        - The PM6 Hamiltonian to be used
 *
 *
 *
 *                 CHARGE ON SYSTEM =    -1
 *
 *
 *
 *  NOSYM      - POINT-GROUP SYMMETRY SET TO C1
 *  T=         - A TIME OF     12.0 MINUTES REQUESTED
 *  DUMP=N     - RESTART FILE WRITTEN EVERY  7200.000 SECONDS
 *  GNORM=     - EXIT WHEN GRADIENT NORM DROPS BELOW   5.00    
 *  AUX        - OUTPUT AUXILIARY INFORMATION
 *  LOCALIZE   - LOCALIZED ORBITALS TO BE PRINTED
 *******************************************************************************
 PM6 NOSYM T=12M GNORM=5.000000 CHARGE=-1 AUX LOCALIZE
   MOPAC run
   ready to go?
   ATOM   CHEMICAL          X               Y               Z
  NUMBER   SYMBOL      (ANGSTROMS)     (ANGSTROMS)     (ANGSTROMS)
 
     1       C          0.30069000  *  -4.71424000  *  -1.05715000  *
     2       C          1.23875000  *  -3.78096000  *  -0.62478000  *
     3       C         -0.38004000  *  -4.54959000  *  -2.27851000  *
     4       H          0.08241000  *  -5.58376000  *  -0.44366000  *
     5       C         -0.09567000  *  -3.41259000  *  -3.04645000  *
     6       H         -1.10708000  *  -5.28777000  *  -2.60492000  *
     7       C          0.84437000  *  -2.47731000  *  -2.61835000  *
     8       H         -0.61155000  *  -3.25253000  *  -3.99208000  *
     9       C          1.57748000  *  -2.60490000  *  -1.39441000  *
    10       H          1.06111000  *  -1.59300000  *  -3.21019000  *
    11       O          1.91282000  *  -3.89256000  *   0.61344000  *
    12       C          1.23752000  *  -4.54225000  *   1.70315000  *
    13       H          0.25935000  *  -4.08235000  *   1.90648000  *
    14       H          1.89161000  *  -4.41703000  *   2.56797000  *
    15       H          1.08743000  *  -5.61590000  *   1.51548000  *
    16       N          2.40940000  *  -1.60595000  *  -1.02087000  *
    17       C          3.57346000  *  -1.63902000  *  -0.28582000  *
    18       C          4.00370000  *  -0.43298000  *   0.37596000  *
    19       C          4.47967000  *  -2.75952000  *  -0.26203000  *
    20       C          5.23674000  *  -0.39360000  *   1.03565000  *
    21       C          5.70393000  *  -2.66202000  *   0.41032000  *
    22       C          6.09852000  *  -1.49589000  *   1.07218000  *
    23       H          6.37244000  *  -3.52214000  *   0.40418000  *
    24       H          7.05110000  *  -1.44337000  *   1.59382000  *
    25       H          5.52505000  *   0.52873000  *   1.54015000  *
    26       C          3.13924000  *   0.82941000  *   0.39263000  *
    27       C          1.80372000  *   0.63575000  *  -0.36478000  *
    28       H          1.99001000  *   0.37985000  *  -1.41602000  *
    29       H          1.20184000  *   1.55619000  *  -0.33541000  *
    30       H          1.24802000  *  -0.18184000  *   0.10288000  *
    31       C          2.89183000  *   1.37514000  *   1.81861000  *
    32       H          2.34278000  *   2.32783000  *   1.77570000  *
    33       H          3.84267000  *   1.54497000  *   2.33863000  *
    34       H          2.31007000  *   0.65565000  *   2.39870000  *
    35       H          3.71223000  *   1.60055000  *  -0.15001000  *
    36       C          4.66464000  *  -5.31023000  *  -0.30669000  *
    37       C          4.17068000  *  -4.04134000  *  -1.03749000  *
    38       H          4.23718000  *  -5.35114000  *   0.69948000  *
    39       H          5.75947000  *  -5.32084000  *  -0.21357000  *
    40       H          4.36759000  *  -6.21725000  *  -0.85212000  *
    41       C          4.74531000  *  -3.97840000  *  -2.47382000  *
    42       H          3.08595000  *  -4.12600000  *  -1.13235000  *
    43       H          5.84069000  *  -3.89939000  *  -2.45808000  *
    44       H          4.35206000  *  -3.10394000  *  -3.00444000  *
    45       H          4.47808000  *  -4.87874000  *  -3.04622000  *
 


          CARTESIAN COORDINATES 

    NO.       ATOM         X         Y         Z

     1         C        0.3007   -4.7142   -1.0572
     2         C        1.2388   -3.7810   -0.6248
     3         C       -0.3800   -4.5496   -2.2785
     4         H        0.0824   -5.5838   -0.4437
     5         C       -0.0957   -3.4126   -3.0465
     6         H       -1.1071   -5.2878   -2.6049
     7         C        0.8444   -2.4773   -2.6183
     8         H       -0.6116   -3.2525   -3.9921
     9         C        1.5775   -2.6049   -1.3944
    10         H        1.0611   -1.5930   -3.2102
    11         O        1.9128   -3.8926    0.6134
    12         C        1.2375   -4.5423    1.7031
    13         H        0.2594   -4.0823    1.9065
    14         H        1.8916   -4.4170    2.5680
    15         H        1.0874   -5.6159    1.5155
    16         N        2.4094   -1.6059   -1.0209
    17         C        3.5735   -1.6390   -0.2858
    18         C        4.0037   -0.4330    0.3760
    19         C        4.4797   -2.7595   -0.2620
    20         C        5.2367   -0.3936    1.0356
    21         C        5.7039   -2.6620    0.4103
    22         C        6.0985   -1.4959    1.0722
    23         H        6.3724   -3.5221    0.4042
    24         H        7.0511   -1.4434    1.5938
    25         H        5.5251    0.5287    1.5402
    26         C        3.1392    0.8294    0.3926
    27         C        1.8037    0.6358   -0.3648
    28         H        1.9900    0.3799   -1.4160
    29         H        1.2018    1.5562   -0.3354
    30         H        1.2480   -0.1818    0.1029
    31         C        2.8918    1.3751    1.8186
    32         H        2.3428    2.3278    1.7757
    33         H        3.8427    1.5450    2.3386
    34         H        2.3101    0.6557    2.3987
    35         H        3.7122    1.6006   -0.1500
    36         C        4.6646   -5.3102   -0.3067
    37         C        4.1707   -4.0413   -1.0375
    38         H        4.2372   -5.3511    0.6995
    39         H        5.7595   -5.3208   -0.2136
    40         H        4.3676   -6.2172   -0.8521
    41         C        4.7453   -3.9784   -2.4738
    42         H        3.0859   -4.1260   -1.1323
    43         H        5.8407   -3.8994   -2.4581
    44         H        4.3521   -3.1039   -3.0044
    45         H        4.4781   -4.8787   -3.0462

 General Reference for PM6:
 "Optimization of Parameters for Semiempirical Methods V: Modification of NDDO Approximations
 and Application to 70 Elements", J. J. P. Stewart, J. Mol. Mod., 13, 1173-1213 (2007)
 URL: http://www.springerlink.com/content/ar33482301010477/fulltext.pdf

           Empirical Formula: C19 H24 N O  =    45 atoms



      MOLECULAR POINT GROUP   :   C1  


      RHF CALCULATION, NO. OF DOUBLY OCCUPIED LEVELS = 56


          Geometry optimization using L-BFGS
 CYCLE:     1 TIME:   0.109 TIME LEFT: 11.99M  GRAD.:    76.997 HEAT: -19.38885
 CYCLE:     2 TIME:   0.059 TIME LEFT: 11.99M  GRAD.:    76.262 HEAT: -19.44786
 CYCLE:     3 TIME:   0.059 TIME LEFT: 11.99M  GRAD.:    42.565 HEAT: -24.11775
 CYCLE:     4 TIME:   0.059 TIME LEFT: 11.99M  GRAD.:    76.483 HEAT: -19.45024
 CYCLE:     5 TIME:   0.062 TIME LEFT: 11.99M  GRAD.:    42.686 HEAT: -24.11819
 CYCLE:     6 TIME:   0.066 TIME LEFT: 11.99M  GRAD.:    42.213 HEAT: -25.49970
 CYCLE:     7 TIME:   0.062 TIME LEFT: 11.99M  GRAD.:    27.099 HEAT: -26.96913
 CYCLE:     8 TIME:   0.062 TIME LEFT: 11.99M  GRAD.:    24.769 HEAT: -27.57883
 CYCLE:     9 TIME:   0.062 TIME LEFT: 11.99M  GRAD.:    21.521 HEAT: -28.10473
 CYCLE:    10 TIME:   0.066 TIME LEFT: 11.99M  GRAD.:    31.713 HEAT: -28.63683
 CYCLE:    11 TIME:   0.059 TIME LEFT: 11.98M  GRAD.:    26.362 HEAT: -29.02798
 CYCLE:    12 TIME:   0.062 TIME LEFT: 11.98M  GRAD.:    18.091 HEAT: -29.31820
 CYCLE:    13 TIME:   0.078 TIME LEFT: 11.98M  GRAD.:    14.982 HEAT: -29.72006
 CYCLE:    14 TIME:   0.078 TIME LEFT: 11.98M  GRAD.:    24.150 HEAT: -29.98798
 CYCLE:    15 TIME:   0.070 TIME LEFT: 11.98M  GRAD.:    15.076 HEAT: -30.27708
 CYCLE:    16 TIME:   0.066 TIME LEFT: 11.98M  GRAD.:    12.711 HEAT: -30.50560
 CYCLE:    17 TIME:   0.066 TIME LEFT: 11.98M  GRAD.:    14.646 HEAT: -30.68634
 CYCLE:    18 TIME:   0.066 TIME LEFT: 11.98M  GRAD.:    11.572 HEAT: -30.82373
 CYCLE:    19 TIME:   0.062 TIME LEFT: 11.98M  GRAD.:     9.013 HEAT: -30.92949
 CYCLE:    20 TIME:   0.062 TIME LEFT: 11.97M  GRAD.:     9.351 HEAT: -31.04739
 CYCLE:    21 TIME:   0.059 TIME LEFT: 11.97M  GRAD.:    13.362 HEAT: -31.15130
 CYCLE:    22 TIME:   0.062 TIME LEFT: 11.97M  GRAD.:    10.205 HEAT: -31.26525
 CYCLE:    23 TIME:   0.059 TIME LEFT: 11.97M  GRAD.:     9.570 HEAT: -31.39682
 CYCLE:    24 TIME:   0.062 TIME LEFT: 11.97M  GRAD.:    15.091 HEAT: -31.54140
 CYCLE:    25 TIME:   0.055 TIME LEFT: 11.97M  GRAD.:    13.398 HEAT: -31.64996
 CYCLE:    26 TIME:   0.059 TIME LEFT: 11.97M  GRAD.:     7.562 HEAT: -31.72676
 CYCLE:    27 TIME:   0.055 TIME LEFT: 11.97M  GRAD.:     7.223 HEAT: -31.79663
 CYCLE:    28 TIME:   0.059 TIME LEFT: 11.97M  GRAD.:     8.588 HEAT: -31.84486
 CYCLE:    29 TIME:   0.062 TIME LEFT: 11.97M  GRAD.:     7.177 HEAT: -31.91484
 CYCLE:    30 TIME:   0.062 TIME LEFT: 11.96M  GRAD.:    12.210 HEAT: -31.96612
 CYCLE:    31 TIME:   0.062 TIME LEFT: 11.96M  GRAD.:     6.567 HEAT: -32.02420
 CYCLE:    32 TIME:   0.059 TIME LEFT: 11.96M  GRAD.:     5.728 HEAT: -32.06546
 CYCLE:    33 TIME:   0.059 TIME LEFT: 11.96M  GRAD.:     7.882 HEAT: -32.11682
 CYCLE:    34 TIME:   0.070 TIME LEFT: 11.96M  GRAD.:    10.409 HEAT: -32.15548
 CYCLE:    35 TIME:   0.066 TIME LEFT: 11.96M  GRAD.:     5.494 HEAT: -32.19418
 CYCLE:    36 TIME:   0.066 TIME LEFT: 11.96M  GRAD.:     5.541 HEAT: -32.22662
 CYCLE:    37 TIME:   0.062 TIME LEFT: 11.96M  GRAD.:     7.341 HEAT: -32.26920
 CYCLE:    38 TIME:   0.066 TIME LEFT: 11.96M  GRAD.:    12.216 HEAT: -32.32572
 CYCLE:    39 TIME:   0.059 TIME LEFT: 11.95M  GRAD.:     7.451 HEAT: -32.40228
 CYCLE:    40 TIME:   0.062 TIME LEFT: 11.95M  GRAD.:     6.352 HEAT: -32.46482
 CYCLE:    41 TIME:   0.059 TIME LEFT: 11.95M  GRAD.:     9.828 HEAT: -32.53708
 CYCLE:    42 TIME:   0.059 TIME LEFT: 11.95M  GRAD.:    10.549 HEAT: -32.60978
 CYCLE:    43 TIME:   0.055 TIME LEFT: 11.95M  GRAD.:     8.923 HEAT: -32.68867
 CYCLE:    44 TIME:   0.059 TIME LEFT: 11.95M  GRAD.:     8.655 HEAT: -32.78401
 CYCLE:    45 TIME:   0.055 TIME LEFT: 11.95M  GRAD.:     8.409 HEAT: -32.83732
 CYCLE:    46 TIME:   0.059 TIME LEFT: 11.95M  GRAD.:     7.828 HEAT: -32.88909
 CYCLE:    47 TIME:   0.062 TIME LEFT: 11.95M  GRAD.:    13.854 HEAT: -32.94485
 CYCLE:    48 TIME:   0.059 TIME LEFT: 11.95M  GRAD.:     6.424 HEAT: -33.00674
 CYCLE:    49 TIME:   0.062 TIME LEFT: 11.94M  GRAD.:     6.360 HEAT: -33.04298
 CYCLE:    50 TIME:   0.062 TIME LEFT: 11.94M  GRAD.:     9.647 HEAT: -33.10982
 CYCLE:    51 TIME:   0.062 TIME LEFT: 11.94M  GRAD.:    20.220 HEAT: -33.15129
 CYCLE:    52 TIME:   0.059 TIME LEFT: 11.94M  GRAD.:    10.293 HEAT: -33.23803
 CYCLE:    53 TIME:   0.062 TIME LEFT: 11.94M  GRAD.:     8.535 HEAT: -33.32660
 CYCLE:    54 TIME:   0.055 TIME LEFT: 11.94M  GRAD.:     9.760 HEAT: -33.39564
 CYCLE:    55 TIME:   0.059 TIME LEFT: 11.94M  GRAD.:    11.877 HEAT: -33.49029
 CYCLE:    56 TIME:   0.066 TIME LEFT: 11.94M  GRAD.:    17.655 HEAT: -33.53626
 CYCLE:    57 TIME:   0.066 TIME LEFT: 11.94M  GRAD.:    16.154 HEAT: -33.58595
 CYCLE:    58 TIME:   0.055 TIME LEFT: 11.94M  GRAD.:     5.532 HEAT: -33.66125
 CYCLE:    59 TIME:   0.051 TIME LEFT: 11.94M  GRAD.:     4.797 HEAT: -33.68257

 -------------------------------------------------------------------------------
 PM6 NOSYM T=12M GNORM=5.000000 CHARGE=-1 AUX LOCALIZE
   MOPAC run
   ready to go?


     HERBERTS TEST WAS SATISFIED IN BFGS                      
     SCF FIELD WAS ACHIEVED                                   


                              PM6 CALCULATION
                                                       MOPAC2016 (Version: 17.165L)
                                                       Tue Oct 31 16:34:39 2017
                                                       No. of days remaining = 226




          FINAL HEAT OF FORMATION =        -33.68269 KCAL/MOL =    -140.92839 KJ/MOL


          TOTAL ENERGY            =      -3124.80323 EV
          ELECTRONIC ENERGY       =     -25766.18596 EV  POINT GROUP:     C1  
          CORE-CORE REPULSION     =      22641.38273 EV
          COSMO AREA              =        311.27 SQUARE ANGSTROMS
          COSMO VOLUME            =        382.51 CUBIC ANGSTROMS

          GRADIENT NORM           =          4.79715
          IONIZATION POTENTIAL    =          3.093669 EV
          HOMO LUMO ENERGIES (EV) =         -3.094  4.237
          NO. OF FILLED LEVELS    =         56
          MOLECULAR WEIGHT        =        282.4047

          MOLECULAR DIMENSIONS (Angstroms)

            Atom       Atom       Distance
            H    24    H     6    10.05426
            H    32    H    40     8.90185
            H    10    H    14     6.09210


          SCF CALCULATIONS        =         60
 
          WALL-CLOCK TIME         =          3.961 SECONDS
          COMPUTATION TIME        =          3.707 SECONDS



       FINAL  POINT  AND  DERIVATIVES

   PARAMETER     ATOM    TYPE            VALUE       GRADIENT
      1          1  C    CARTESIAN X    -0.072408    -0.223952  KCAL/ANGSTROM
      2          1  C    CARTESIAN Y    -4.356197    -0.451345  KCAL/ANGSTROM
      3          1  C    CARTESIAN Z    -0.808679     0.216876  KCAL/ANGSTROM
      4          2  C    CARTESIAN X     1.059320     0.242844  KCAL/ANGSTROM
      5          2  C    CARTESIAN Y    -3.608262    -0.101042  KCAL/ANGSTROM
      6          2  C    CARTESIAN Z    -0.557330     0.222759  KCAL/ANGSTROM
      7          3  C    CARTESIAN X    -0.765115    -0.558265  KCAL/ANGSTROM
      8          3  C    CARTESIAN Y    -4.202584    -0.016096  KCAL/ANGSTROM
      9          3  C    CARTESIAN Z    -2.026589     0.695579  KCAL/ANGSTROM
     10          4  H    CARTESIAN X    -0.449682    -0.818796  KCAL/ANGSTROM
     11          4  H    CARTESIAN Y    -5.071945    -0.371942  KCAL/ANGSTROM
     12          4  H    CARTESIAN Z    -0.086415    -0.100857  KCAL/ANGSTROM
     13          5  C    CARTESIAN X    -0.275639    -0.024916  KCAL/ANGSTROM
     14          5  C    CARTESIAN Y    -3.295989     0.664507  KCAL/ANGSTROM
     15          5  C    CARTESIAN Z    -2.968216     0.411895  KCAL/ANGSTROM
     16          6  H    CARTESIAN X    -1.645058     0.077203  KCAL/ANGSTROM
     17          6  H    CARTESIAN Y    -4.791461    -0.651916  KCAL/ANGSTROM
     18          6  H    CARTESIAN Z    -2.226690    -0.556149  KCAL/ANGSTROM
     19          7  C    CARTESIAN X     0.871592    -0.005435  KCAL/ANGSTROM
     20          7  C    CARTESIAN Y    -2.551473     0.083659  KCAL/ANGSTROM
     21          7  C    CARTESIAN Z    -2.740302     0.155167  KCAL/ANGSTROM
     22          8  H    CARTESIAN X    -0.800971     0.354591  KCAL/ANGSTROM
     23          8  H    CARTESIAN Y    -3.175973    -0.007191  KCAL/ANGSTROM
     24          8  H    CARTESIAN Z    -3.912476     0.485119  KCAL/ANGSTROM
     25          9  C    CARTESIAN X     1.607976    -1.720970  KCAL/ANGSTROM
     26          9  C    CARTESIAN Y    -2.644972    -0.072122  KCAL/ANGSTROM
     27          9  C    CARTESIAN Z    -1.510455    -0.451356  KCAL/ANGSTROM
     28         10  H    CARTESIAN X     1.253356     0.703901  KCAL/ANGSTROM
     29         10  H    CARTESIAN Y    -1.875557    -0.623348  KCAL/ANGSTROM
     30         10  H    CARTESIAN Z    -3.495874    -0.502815  KCAL/ANGSTROM
     31         11  O    CARTESIAN X     1.824572    -0.235338  KCAL/ANGSTROM
     32         11  O    CARTESIAN Y    -3.724675    -0.125215  KCAL/ANGSTROM
     33         11  O    CARTESIAN Z     0.611360     0.227030  KCAL/ANGSTROM
     34         12  C    CARTESIAN X     1.158664     0.254464  KCAL/ANGSTROM
     35         12  C    CARTESIAN Y    -4.312635    -0.185982  KCAL/ANGSTROM
     36         12  C    CARTESIAN Z     1.745794     0.280008  KCAL/ANGSTROM
     37         13  H    CARTESIAN X     0.148429    -0.000527  KCAL/ANGSTROM
     38         13  H    CARTESIAN Y    -3.910607    -0.466080  KCAL/ANGSTROM
     39         13  H    CARTESIAN Z     1.856732    -1.660686  KCAL/ANGSTROM
     40         14  H    CARTESIAN X     1.798317    -0.333867  KCAL/ANGSTROM
     41         14  H    CARTESIAN Y    -4.018821    -0.450951  KCAL/ANGSTROM
     42         14  H    CARTESIAN Z     2.584661     0.846322  KCAL/ANGSTROM
     43         15  H    CARTESIAN X     1.139432     0.019104  KCAL/ANGSTROM
     44         15  H    CARTESIAN Y    -5.399611     0.105338  KCAL/ANGSTROM
     45         15  H    CARTESIAN Z     1.627627    -0.162040  KCAL/ANGSTROM
     46         16  N    CARTESIAN X     2.655530     0.742307  KCAL/ANGSTROM
     47         16  N    CARTESIAN Y    -1.824370     0.900185  KCAL/ANGSTROM
     48         16  N    CARTESIAN Z    -1.369432     0.770470  KCAL/ANGSTROM
     49         17  C    CARTESIAN X     3.667291    -0.391373  KCAL/ANGSTROM
     50         17  C    CARTESIAN Y    -1.791104     0.013680  KCAL/ANGSTROM
     51         17  C    CARTESIAN Z    -0.421139     0.003506  KCAL/ANGSTROM
     52         18  C    CARTESIAN X     3.918890    -0.257994  KCAL/ANGSTROM
     53         18  C    CARTESIAN Y    -0.584490    -0.352047  KCAL/ANGSTROM
     54         18  C    CARTESIAN Z     0.303772     0.196111  KCAL/ANGSTROM
     55         19  C    CARTESIAN X     4.642277     0.236592  KCAL/ANGSTROM
     56         19  C    CARTESIAN Y    -2.847418     0.424494  KCAL/ANGSTROM
     57         19  C    CARTESIAN Z    -0.335345     0.478911  KCAL/ANGSTROM
     58         20  C    CARTESIAN X     5.119808    -0.202571  KCAL/ANGSTROM
     59         20  C    CARTESIAN Y    -0.455423     0.645405  KCAL/ANGSTROM
     60         20  C    CARTESIAN Z     1.018832    -0.041855  KCAL/ANGSTROM
     61         21  C    CARTESIAN X     5.799841     0.276478  KCAL/ANGSTROM
     62         21  C    CARTESIAN Y    -2.678197     0.299797  KCAL/ANGSTROM
     63         21  C    CARTESIAN Z     0.417759     0.210746  KCAL/ANGSTROM
     64         22  C    CARTESIAN X     6.055287     0.499245  KCAL/ANGSTROM
     65         22  C    CARTESIAN Y    -1.483697     0.395336  KCAL/ANGSTROM
     66         22  C    CARTESIAN Z     1.098864     0.706125  KCAL/ANGSTROM
     67         23  H    CARTESIAN X     6.530231    -0.247991  KCAL/ANGSTROM
     68         23  H    CARTESIAN Y    -3.482928    -0.314654  KCAL/ANGSTROM
     69         23  H    CARTESIAN Z     0.472276     0.133336  KCAL/ANGSTROM
     70         24  H    CARTESIAN X     6.965724     0.372587  KCAL/ANGSTROM
     71         24  H    CARTESIAN Y    -1.361067    -0.057867  KCAL/ANGSTROM
     72         24  H    CARTESIAN Z     1.668804     0.119284  KCAL/ANGSTROM
     73         25  H    CARTESIAN X     5.336732     0.594887  KCAL/ANGSTROM
     74         25  H    CARTESIAN Y     0.478773     0.007800  KCAL/ANGSTROM
     75         25  H    CARTESIAN Z     1.536425    -0.101265  KCAL/ANGSTROM
     76         26  C    CARTESIAN X     3.022809     0.235739  KCAL/ANGSTROM
     77         26  C    CARTESIAN Y     0.646623    -0.118894  KCAL/ANGSTROM
     78         26  C    CARTESIAN Z     0.347665    -0.244560  KCAL/ANGSTROM
     79         27  C    CARTESIAN X     1.667202     0.270759  KCAL/ANGSTROM
     80         27  C    CARTESIAN Y     0.570912     0.153173  KCAL/ANGSTROM
     81         27  C    CARTESIAN Z    -0.356097     0.059006  KCAL/ANGSTROM
     82         28  H    CARTESIAN X     1.785274    -0.633223  KCAL/ANGSTROM
     83         28  H    CARTESIAN Y     0.335430     0.150166  KCAL/ANGSTROM
     84         28  H    CARTESIAN Z    -1.424558     0.285764  KCAL/ANGSTROM
     85         29  H    CARTESIAN X     1.118627     0.163051  KCAL/ANGSTROM
     86         29  H    CARTESIAN Y     1.509386    -0.244659  KCAL/ANGSTROM
     87         29  H    CARTESIAN Z    -0.271940     0.070175  KCAL/ANGSTROM
     88         30  H    CARTESIAN X     1.043973    -0.221479  KCAL/ANGSTROM
     89         30  H    CARTESIAN Y    -0.231592     1.028341  KCAL/ANGSTROM
     90         30  H    CARTESIAN Z     0.054909     0.117500  KCAL/ANGSTROM
     91         31  C    CARTESIAN X     2.770846     0.187673  KCAL/ANGSTROM
     92         31  C    CARTESIAN Y     1.052305    -0.356152  KCAL/ANGSTROM
     93         31  C    CARTESIAN Z     1.819601    -0.507411  KCAL/ANGSTROM
     94         32  H    CARTESIAN X     2.131909     0.431951  KCAL/ANGSTROM
     95         32  H    CARTESIAN Y     1.933219    -0.635909  KCAL/ANGSTROM
     96         32  H    CARTESIAN Z     1.884109    -0.044039  KCAL/ANGSTROM
     97         33  H    CARTESIAN X     3.705456    -0.144604  KCAL/ANGSTROM
     98         33  H    CARTESIAN Y     1.267025    -0.326739  KCAL/ANGSTROM
     99         33  H    CARTESIAN Z     2.342959    -0.536518  KCAL/ANGSTROM
    100         34  H    CARTESIAN X     2.274894     0.093257  KCAL/ANGSTROM
    101         34  H    CARTESIAN Y     0.234114     0.415164  KCAL/ANGSTROM
    102         34  H    CARTESIAN Z     2.352309    -0.114406  KCAL/ANGSTROM
    103         35  H    CARTESIAN X     3.605493     0.204260  KCAL/ANGSTROM
    104         35  H    CARTESIAN Y     1.466341    -0.451338  KCAL/ANGSTROM
    105         35  H    CARTESIAN Z    -0.151845    -0.459075  KCAL/ANGSTROM
    106         36  C    CARTESIAN X     4.983682    -0.108541  KCAL/ANGSTROM
    107         36  C    CARTESIAN Y    -5.366027     0.235073  KCAL/ANGSTROM
    108         36  C    CARTESIAN Z    -0.386126    -0.281719  KCAL/ANGSTROM
    109         37  C    CARTESIAN X     4.463736    -0.006488  KCAL/ANGSTROM
    110         37  C    CARTESIAN Y    -4.125417     0.387240  KCAL/ANGSTROM
    111         37  C    CARTESIAN Z    -1.133675    -0.035094  KCAL/ANGSTROM
    112         38  H    CARTESIAN X     4.528736     0.160257  KCAL/ANGSTROM
    113         38  H    CARTESIAN Y    -5.412870     0.266434  KCAL/ANGSTROM
    114         38  H    CARTESIAN Z     0.609809    -0.243108  KCAL/ANGSTROM
    115         39  H    CARTESIAN X     6.068815    -0.212867  KCAL/ANGSTROM
    116         39  H    CARTESIAN Y    -5.339785     0.450684  KCAL/ANGSTROM
    117         39  H    CARTESIAN Z    -0.262074     0.030222  KCAL/ANGSTROM
    118         40  H    CARTESIAN X     4.719818    -0.142287  KCAL/ANGSTROM
    119         40  H    CARTESIAN Y    -6.281174    -0.140607  KCAL/ANGSTROM
    120         40  H    CARTESIAN Z    -0.921013     0.133307  KCAL/ANGSTROM
    121         41  C    CARTESIAN X     5.157283    -0.064501  KCAL/ANGSTROM
    122         41  C    CARTESIAN Y    -3.971881    -0.171094  KCAL/ANGSTROM
    123         41  C    CARTESIAN Z    -2.498768    -0.077624  KCAL/ANGSTROM
    124         42  H    CARTESIAN X     3.370555    -0.114308  KCAL/ANGSTROM
    125         42  H    CARTESIAN Y    -4.301150    -0.036598  KCAL/ANGSTROM
    126         42  H    CARTESIAN Z    -1.314589    -0.165080  KCAL/ANGSTROM
    127         43  H    CARTESIAN X     6.217867    -0.226937  KCAL/ANGSTROM
    128         43  H    CARTESIAN Y    -3.736436     0.269562  KCAL/ANGSTROM
    129         43  H    CARTESIAN Z    -2.386508    -0.291927  KCAL/ANGSTROM
    130         44  H    CARTESIAN X     4.695193     0.430452  KCAL/ANGSTROM
    131         44  H    CARTESIAN Y    -3.139746     0.042509  KCAL/ANGSTROM
    132         44  H    CARTESIAN Z    -3.049202     0.005313  KCAL/ANGSTROM
    133         45  H    CARTESIAN X     5.060706     0.345628  KCAL/ANGSTROM
    134         45  H    CARTESIAN Y    -4.874868    -0.208757  KCAL/ANGSTROM
    135         45  H    CARTESIAN Z    -3.103743    -0.282950  KCAL/ANGSTROM




   ATOM   CHEMICAL          X               Y               Z
  NUMBER   SYMBOL      (ANGSTROMS)     (ANGSTROMS)     (ANGSTROMS)
 
     1       C         -0.07240794  *  -4.35619683  *  -0.80867873  *
     2       C          1.05931999  *  -3.60826210  *  -0.55732999  *
     3       C         -0.76511470  *  -4.20258394  *  -2.02658946  *
     4       H         -0.44968155  *  -5.07194455  *  -0.08641464  *
     5       C         -0.27563903  *  -3.29598873  *  -2.96821552  *
     6       H         -1.64505814  *  -4.79146064  *  -2.22668991  *
     7       C          0.87159167  *  -2.55147278  *  -2.74030172  *
     8       H         -0.80097103  *  -3.17597316  *  -3.91247572  *
     9       C          1.60797551  *  -2.64497194  *  -1.51045535  *
    10       H          1.25335627  *  -1.87555667  *  -3.49587388  *
    11       O          1.82457196  *  -3.72467491  *   0.61135969  *
    12       C          1.15866410  *  -4.31263466  *   1.74579414  *
    13       H          0.14842884  *  -3.91060702  *   1.85673209  *
    14       H          1.79831652  *  -4.01882061  *   2.58466108  *
    15       H          1.13943225  *  -5.39961120  *   1.62762731  *
    16       N          2.65553018  *  -1.82437005  *  -1.36943170  *
    17       C          3.66729101  *  -1.79110362  *  -0.42113915  *
    18       C          3.91888952  *  -0.58448965  *   0.30377173  *
    19       C          4.64227727  *  -2.84741798  *  -0.33534461  *
    20       C          5.11980818  *  -0.45542259  *   1.01883216  *
    21       C          5.79984119  *  -2.67819662  *   0.41775893  *
    22       C          6.05528730  *  -1.48369689  *   1.09886421  *
    23       H          6.53023066  *  -3.48292827  *   0.47227646  *
    24       H          6.96572396  *  -1.36106690  *   1.66880427  *
    25       H          5.33673246  *   0.47877340  *   1.53642492  *
    26       C          3.02280927  *   0.64662294  *   0.34766498  *
    27       C          1.66720186  *   0.57091155  *  -0.35609667  *
    28       H          1.78527426  *   0.33543010  *  -1.42455768  *
    29       H          1.11862682  *   1.50938641  *  -0.27194017  *
    30       H          1.04397338  *  -0.23159239  *   0.05490929  *
    31       C          2.77084573  *   1.05230549  *   1.81960075  *
    32       H          2.13190853  *   1.93321872  *   1.88410855  *
    33       H          3.70545647  *   1.26702458  *   2.34295856  *
    34       H          2.27489404  *   0.23411379  *   2.35230923  *
    35       H          3.60549256  *   1.46634072  *  -0.15184453  *
    36       C          4.98368218  *  -5.36602695  *  -0.38612621  *
    37       C          4.46373552  *  -4.12541713  *  -1.13367456  *
    38       H          4.52873568  *  -5.41287000  *   0.60980891  *
    39       H          6.06881527  *  -5.33978510  *  -0.26207421  *
    40       H          4.71981822  *  -6.28117359  *  -0.92101304  *
    41       C          5.15728291  *  -3.97188051  *  -2.49876789  *
    42       H          3.37055490  *  -4.30114969  *  -1.31458896  *
    43       H          6.21786735  *  -3.73643602  *  -2.38650778  *
    44       H          4.69519299  *  -3.13974637  *  -3.04920191  *
    45       H          5.06070562  *  -4.87486766  *  -3.10374326  *

                             CARTESIAN COORDINATES

   1    C       -0.072407943    -4.356196831    -0.808678728
   2    C        1.059319990    -3.608262102    -0.557329993
   3    C       -0.765114697    -4.202583944    -2.026589458
   4    H       -0.449681551    -5.071944547    -0.086414641
   5    C       -0.275639025    -3.295988733    -2.968215524
   6    H       -1.645058136    -4.791460635    -2.226689906
   7    C        0.871591672    -2.551472784    -2.740301723
   8    H       -0.800971034    -3.175973164    -3.912475716
   9    C        1.607975514    -2.644971939    -1.510455354
  10    H        1.253356270    -1.875556670    -3.495873882
  11    O        1.824571960    -3.724674911     0.611359694
  12    C        1.158664104    -4.312634662     1.745794144
  13    H        0.148428845    -3.910607015     1.856732085
  14    H        1.798316519    -4.018820612     2.584661083
  15    H        1.139432248    -5.399611196     1.627627313
  16    N        2.655530178    -1.824370052    -1.369431700
  17    C        3.667291007    -1.791103620    -0.421139147
  18    C        3.918889521    -0.584489645     0.303771733
  19    C        4.642277271    -2.847417979    -0.335344608
  20    C        5.119808185    -0.455422588     1.018832160
  21    C        5.799841193    -2.678196621     0.417758926
  22    C        6.055287298    -1.483696894     1.098864207
  23    H        6.530230656    -3.482928266     0.472276464
  24    H        6.965723963    -1.361066896     1.668804273
  25    H        5.336732463     0.478773405     1.536424924
  26    C        3.022809272     0.646622945     0.347664978
  27    C        1.667201856     0.570911549    -0.356096666
  28    H        1.785274259     0.335430099    -1.424557680
  29    H        1.118626817     1.509386410    -0.271940172
  30    H        1.043973379    -0.231592393     0.054909285
  31    C        2.770845725     1.052305486     1.819600745
  32    H        2.131908527     1.933218718     1.884108550
  33    H        3.705456472     1.267024583     2.342958561
  34    H        2.274894040     0.234113793     2.352309231
  35    H        3.605492563     1.466340725    -0.151844535
  36    C        4.983682183    -5.366026948    -0.386126211
  37    C        4.463735518    -4.125417129    -1.133674560
  38    H        4.528735682    -5.412869996     0.609808907
  39    H        6.068815270    -5.339785099    -0.262074208
  40    H        4.719818216    -6.281173588    -0.921013039
  41    C        5.157282907    -3.971880513    -2.498767892
  42    H        3.370554900    -4.301149686    -1.314588964
  43    H        6.217867348    -3.736436018    -2.386507784
  44    H        4.695192989    -3.139746371    -3.049201913
  45    H        5.060705615    -4.874867660    -3.103743262


           Empirical Formula: C19 H24 N O  =    45 atoms



      MOLECULAR POINT GROUP   :   C1  


                  EIGENVALUES  
 -26.77917 -26.31986 -25.70761 -25.19989 -24.90318 -24.29904 -22.25255 -21.88094
 -21.42156 -21.22875 -20.87218 -20.59536 -19.92691 -18.11555 -17.93853 -16.98240
 -16.68451 -15.79880 -14.93222 -14.31458 -13.46187 -12.73724 -12.49149 -12.38831
 -12.18410 -11.93160 -11.52165 -11.44445 -11.29464 -11.19458 -10.82249 -10.72001
 -10.20586 -10.19147 -10.13031  -9.81052  -9.77635  -9.47372  -9.28095  -9.16798
  -9.05617  -8.60240  -8.54864  -8.38079  -8.28046  -8.20895  -8.05619  -7.77995
  -7.74658  -7.45035  -6.71260  -6.27992  -5.55099  -5.25395  -4.29330  -3.09367
   4.23731   4.27368   4.58386   5.02022   5.53419   6.49278   6.88533   7.47068
   7.51397   7.63161   7.67153   7.80626   7.90386   8.06729   8.11699   8.35309
   8.42841   8.61166   8.61973   8.72985   8.75173   8.86227   8.89852   8.93750
   8.98800   9.02061   9.07824   9.10045   9.12452   9.23844   9.25089   9.32597
   9.38069   9.42467   9.45071   9.55756   9.59133   9.68907   9.76801   9.83517
   9.86851   9.93112   9.95015   9.98428  10.07168  10.16719  10.18276  10.27626
  10.42655  10.71091  10.77919  11.18209


              NET ATOMIC CHARGES AND DIPOLE CONTRIBUTIONS

  ATOM NO.   TYPE          CHARGE      No. of ELECS.   s-Pop       p-Pop       
    1          C          -0.156166        4.1562     1.09388     3.06229
    2          C          -0.006578        4.0066     1.09883     2.90775
    3          C          -0.370179        4.3702     1.08299     3.28719
    4          H           0.116960        0.8830     0.88304
    5          C          -0.024293        4.0243     1.09145     2.93284
    6          H           0.123250        0.8768     0.87675
    7          C          -0.411327        4.4113     1.09737     3.31396
    8          H           0.096467        0.9035     0.90353
    9          C           0.357584        3.6424     1.07244     2.56998
   10          H           0.155303        0.8447     0.84470
   11          O          -0.387837        6.3878     1.84862     4.53922
   12          C          -0.179328        4.1793     1.09476     3.08457
   13          H           0.122914        0.8771     0.87709
   14          H           0.137624        0.8624     0.86238
   15          H           0.113190        0.8868     0.88681
   16          N          -0.618821        5.6188     1.67817     3.94065
   17          C           0.339535        3.6605     1.08252     2.57794
   18          C          -0.170456        4.1705     1.10550     3.06496
   19          C          -0.163436        4.1634     1.10933     3.05411
   20          C          -0.112953        4.1130     1.10037     3.01259
   21          C          -0.104554        4.1046     1.09830     3.00626
   22          C          -0.298390        4.2984     1.09178     3.20661
   23          H           0.117697        0.8823     0.88230
   24          H           0.123385        0.8766     0.87661
   25          H           0.113701        0.8863     0.88630
   26          C           0.063075        3.9369     1.07122     2.86570
   27          C          -0.494255        4.4943     1.08701     3.40725
   28          H           0.185105        0.8149     0.81490
   29          H           0.115456        0.8845     0.88454
   30          H           0.164239        0.8358     0.83576
   31          C          -0.504239        4.5042     1.09185     3.41239
   32          H           0.129388        0.8706     0.87061
   33          H           0.135191        0.8648     0.86481
   34          H           0.154579        0.8454     0.84542
   35          H           0.093712        0.9063     0.90629
   36          C          -0.495257        4.4953     1.08902     3.40623
   37          C           0.037425        3.9626     1.07392     2.88866
   38          H           0.152070        0.8479     0.84793
   39          H           0.134073        0.8659     0.86593
   40          H           0.132657        0.8673     0.86734
   41          C          -0.494294        4.4943     1.08888     3.40541
   42          H           0.144407        0.8556     0.85559
   43          H           0.136562        0.8634     0.86344
   44          H           0.167438        0.8326     0.83256
   45          H           0.129375        0.8706     0.87062
 DIPOLE           X         Y         Z       TOTAL
 POINT-CHG.     1.020    -0.336     2.735     2.939
 HYBRID         0.313    -0.644     0.988     1.220
 SUM            1.333    -0.981     3.723     4.074


          ATOMIC ORBITAL ELECTRON POPULATIONS

     Atom    s        px        py        pz   
    1  C   1.09388   1.00853   1.02940   1.02435
    2  C   1.09883   0.98740   1.06505   0.85529
    3  C   1.08299   1.11329   1.14377   1.03013
    4  H   0.88304
    5  C   1.09145   0.97261   0.95640   1.00383
    6  H   0.87675
    7  C   1.09737   1.07448   1.16797   1.07151
    8  H   0.90353
    9  C   1.07244   0.86213   0.81113   0.89672
   10  H   0.84470
   11  O   1.84862   1.45485   1.81394   1.27043
   12  C   1.09476   1.08209   1.07503   0.92745
   13  H   0.87709
   14  H   0.86238
   15  H   0.88681
   16  N   1.67817   1.20260   1.39531   1.34274
   17  C   1.08252   0.88053   0.89892   0.79849
   18  C   1.10550   0.99613   1.00866   1.06017
   19  C   1.10933   1.00028   1.00948   1.04435
   20  C   1.10037   0.98023   1.02411   1.00825
   21  C   1.09830   1.01120   1.00660   0.98846
   22  C   1.09178   1.06955   1.01739   1.11966
   23  H   0.88230
   24  H   0.87661
   25  H   0.88630
   26  C   1.07122   0.95951   0.99451   0.91169
   27  C   1.08701   1.07566   1.14719   1.18439
   28  H   0.81490
   29  H   0.88454
   30  H   0.83576
   31  C   1.09185   1.15419   1.15487   1.10333
   32  H   0.87061
   33  H   0.86481
   34  H   0.84542
   35  H   0.90629
   36  C   1.08902   1.14848   1.10535   1.15240
   37  C   1.07392   1.06919   0.90998   0.90949
   38  H   0.84793
   39  H   0.86593
   40  H   0.86734
   41  C   1.08888   1.14693   1.16329   1.09520
   42  H   0.85559
   43  H   0.86344
   44  H   0.83256
   45  H   0.87062

          NUMBER OF ITERATIONS =  26
          LOCALISATION VALUE =  28.953471069

   NUMBER OF CENTERS              (COMPOSITION OF ORBITALS)


    1.0108   O  11 99.46
    2.0494   N  16 55.22   C   9 42.75   C  17  1.37
    1.8967   O  11 62.58   C   2 36.82
    2.0157   C   2 50.61   C   1 48.98
    1.9281   O  11 60.51   C  12 39.05
    2.0237   N  16 54.87   C  17 43.94
    2.0201   C  21 49.91   C  19 49.59
    2.0155   C  22 50.16   C  20 49.46
    2.0242   C  20 50.17   C  18 49.22
    2.0165   C  22 50.28   C  21 49.31
    2.0348   C  18 50.89   C  17 48.21
    2.0174   C   7 50.23   C   5 49.33
    2.0338   C  19 51.13   C  17 47.99
    2.0383   C   2 52.86   C   9 45.96
    2.0138   C   3 50.35   C   5 49.30
    2.0265   C   1 50.27   C   3 49.07
    2.0452   C   7 49.69   C   9 49.20
    1.9743   C  12 55.92   H  15 44.02
    1.9700   C  12 56.38   H  13 43.57
    1.9842   C  12 56.46   H  14 43.04
    1.9854   C  22 55.97   H  24 43.64
    2.0238   C  19 51.65   C  37 47.68
    1.9933   C  20 55.46   H  25 44.06
    2.0241   C  18 51.53   C  26 47.81
    1.9958   C   1 55.51   H   4 43.92
    1.9908   C  21 55.68   H  23 43.85
    1.9986   C   5 54.62   H   8 44.94
    1.9751   C  31 56.35   H  32 43.45
    1.9734   C  31 56.65   H  33 43.11
    1.9858   C   3 55.94   H   6 43.66
    1.9741   C  36 56.49   H  40 43.29
    1.9716   C  36 56.63   H  39 43.18
    2.0010   C  36 53.84   C  37 45.81
    2.0087   C  27 51.60   C  26 48.12
    2.0031   C  31 54.18   C  26 45.35
    1.9760   C  41 56.33   H  45 43.45
    1.9592   C  31 57.66   H  34 42.19
    2.0142   C  41 53.08   C  37 46.34
    1.9647   C  36 57.44   H  38 42.32
    1.9685   C  41 56.78   H  43 43.08
    1.9845   C  27 55.59   H  29 44.14
    2.0090   C  26 54.24   H  35 45.12
    1.9758   C   7 57.36   H  10 42.08
    1.9564   C  41 58.19   H  44 41.54
    1.9810   C  37 56.91   H  42 42.54
    1.9548   C  27 58.12   H  30 41.68
    1.1242   N  16 94.25   C  17  3.31
    1.9470   C  27 59.07   H  28 40.58
    1.0825   O  11 96.10   C   1  1.34   C   2  1.17
    1.6875   N  16 74.10   C   9 20.63   C  17  3.00
    2.3466   C   2 53.46   C   1 36.84   C   9  6.23   C   5  2.51
    2.5959   C  19 52.65   C  21 30.20   C  17 12.37   C  20  3.89
    2.4806   C  22 57.45   C  20 21.96   C  21 15.17   C  17  4.25
    2.6077   C  18 54.62   C  20 23.65   C  17 16.64   C  21  3.84
    2.2501   C   7 61.45   C   5 23.27   C   9 10.91   C   1  2.45
    2.2682   C   3 61.81   C   5 21.14   C   1 11.34   C   9  2.86   C   2  1.93



                     LOCALIZED ORBITALS 






    ROOT NO.    1           2           3           4           5           6

           -17.87185   -17.62543   -17.20094   -16.76812   -16.59245   -16.30841
  
  
  S  C   1   0.02474    -0.01427     0.02581     0.41478    -0.01624     0.00279
 PX  C   1   0.02055    -0.01391     0.01181     0.47533    -0.00173     0.00195
 PY  C   1   0.02409    -0.01123     0.01762     0.28615    -0.02172     0.00170
 PZ  C   1   0.00375    -0.00852    -0.00871     0.09983    -0.01038     0.00142
  
  S  C   2  -0.02044     0.02432    -0.30670     0.47671    -0.01121    -0.02144
 PX  C   2   0.03070    -0.00866    -0.24583    -0.41835    -0.04269    -0.01048
 PY  C   2   0.01492     0.00797     0.06401    -0.31391    -0.01378    -0.01417
 PZ  C   2   0.00201    -0.03099    -0.45783    -0.07308     0.01286     0.01761
  
  S  C   3  -0.00363    -0.00274    -0.01663    -0.01051     0.00305    -0.00022
 PX  C   3  -0.00084    -0.00432    -0.01021     0.01426     0.00089     0.00130
 PY  C   3   0.00029     0.00238     0.00454     0.01308     0.00027    -0.00231
 PZ  C   3  -0.00523     0.00045    -0.02245    -0.00926     0.00409    -0.00038
  
  S  H   4   0.00106     0.00629     0.00830    -0.01363     0.00059    -0.00303
  
  S  C   5  -0.00118    -0.01314    -0.00350    -0.00834    -0.00028    -0.00535
 PX  C   5   0.00163    -0.01249    -0.00095    -0.00034    -0.00442    -0.00621
 PY  C   5  -0.00115    -0.01337    -0.00028     0.00838     0.00482    -0.00180
 PZ  C   5  -0.00190    -0.00182    -0.00232    -0.00100     0.00257     0.00145
  
  S  H   6   0.00366    -0.00194     0.00569     0.02591    -0.00185    -0.00018
  
  S  C   7   0.00133     0.01802    -0.01386    -0.00167    -0.00420     0.02599
 PX  C   7  -0.00056    -0.00541    -0.01276    -0.00096    -0.00135     0.00940
 PY  C   7   0.00083    -0.01291     0.00057    -0.00143    -0.00290    -0.00328
 PZ  C   7   0.00251     0.00892    -0.01833     0.00049    -0.00576     0.02691
  
  S  H   8   0.00015     0.00433    -0.00273     0.00436     0.00002     0.00398
  
  S  C   9  -0.00395    -0.40227     0.02130    -0.02733     0.01907    -0.01977
 PX  C   9  -0.00091    -0.44815    -0.01882    -0.01114    -0.00813    -0.00344
 PY  C   9   0.00285    -0.23545    -0.01693    -0.00777    -0.01865    -0.05137
 PZ  C   9  -0.00034    -0.09707     0.00421    -0.02207     0.00652     0.04593
  
  S  H  10  -0.00023     0.00424     0.00500     0.00268     0.00169    -0.00018
  
  S  O  11   0.89117     0.00383    -0.26375    -0.00263     0.23789    -0.00034
 PX  O  11   0.40310    -0.00593     0.50617     0.00432    -0.44748     0.00033
 PY  O  11   0.18668     0.00063    -0.00356    -0.00302    -0.31077    -0.00006
 PZ  O  11   0.05556    -0.00584     0.54776     0.01187     0.50171    -0.00001
  
  S  C  12  -0.01642    -0.00038     0.00943    -0.00789     0.25696    -0.00019
 PX  C  12   0.02039    -0.00070     0.02927    -0.00166     0.22391    -0.00036
 PY  C  12   0.00941    -0.00042     0.00635    -0.00196     0.22422    -0.00039
 PZ  C  12   0.00207     0.00167     0.00925     0.00403    -0.47332     0.00012
  
  S  H  13   0.02639    -0.00036     0.01687     0.00455    -0.00905    -0.00025
  
  S  H  14  -0.00687     0.00054    -0.02147     0.00349    -0.00376     0.00039
  
  S  H  15   0.02060     0.00050     0.00372     0.00389    -0.00733    -0.00039
  
  S  N  16  -0.00039    -0.32898     0.00408     0.00992     0.00144     0.30451
 PX  N  16   0.00026     0.42536    -0.00194    -0.01467     0.00038     0.35377
 PY  N  16   0.00014     0.51118    -0.00456    -0.01335     0.00058    -0.11717
 PZ  N  16  -0.00276    -0.04203     0.00274     0.00160     0.00277     0.56309
  
  S  C  17   0.00021     0.02767    -0.00221    -0.00069    -0.00173     0.38914
 PX  C  17  -0.00463     0.02452     0.00278    -0.00429     0.00644    -0.46279
 PY  C  17  -0.00417     0.06479    -0.00013    -0.00506     0.00536    -0.08938
 PZ  C  17   0.00396    -0.08999     0.00254     0.01010    -0.00394    -0.25654
  
  S  C  18   0.00083    -0.01544     0.00041     0.00071    -0.00075    -0.02092
 PX  C  18   0.00128    -0.01182     0.00016     0.00164    -0.00069    -0.01387
 PY  C  18   0.00023     0.00541    -0.00038     0.00079     0.00003     0.01927
 PZ  C  18  -0.00349     0.02919    -0.00050    -0.00393     0.00249    -0.00633
  
  S  C  19  -0.00091     0.00783     0.00014    -0.00027     0.00095    -0.02441
 PX  C  19  -0.00015    -0.01784    -0.00106     0.00185     0.00063     0.00019
 PY  C  19  -0.00019    -0.00414    -0.00037     0.00117     0.00083    -0.02135
 PZ  C  19  -0.00074     0.01891     0.00105    -0.00292     0.00014    -0.01506
  
  S  C  20   0.00004     0.00309    -0.00026    -0.00017    -0.00011     0.01496
 PX  C  20  -0.00023    -0.00997     0.00009     0.00126     0.00010    -0.01617
 PY  C  20  -0.00012    -0.00458    -0.00018     0.00085    -0.00002     0.00324
 PZ  C  20   0.00010     0.01058     0.00061    -0.00182     0.00030    -0.01408
  
  S  C  21   0.00055    -0.00069    -0.00004    -0.00006    -0.00062     0.01511
 PX  C  21   0.00070    -0.00354     0.00056     0.00095    -0.00047    -0.01333
 PY  C  21   0.00105    -0.00301     0.00045     0.00067    -0.00076    -0.00384
 PZ  C  21  -0.00302     0.00735    -0.00088    -0.00149     0.00254    -0.01691
  
  S  C  22   0.00003     0.00037    -0.00006     0.00001    -0.00005     0.00282
 PX  C  22  -0.00103     0.00853     0.00003    -0.00162     0.00066    -0.00480
 PY  C  22  -0.00083     0.00720     0.00001    -0.00127     0.00052    -0.00256
 PZ  C  22   0.00173    -0.01582    -0.00001     0.00284    -0.00101     0.00386
  
  S  H  23  -0.00007     0.00096     0.00016     0.00001     0.00013    -0.00571
  
  S  H  24   0.00009     0.00009    -0.00003    -0.00002    -0.00008     0.00244
  
  S  H  25   0.00013    -0.00222     0.00016     0.00015    -0.00008    -0.00538
  
  S  C  26  -0.00010    -0.00030     0.00011    -0.00004     0.00010    -0.00560
 PX  C  26  -0.00004     0.00019     0.00009     0.00003     0.00003    -0.00191
 PY  C  26  -0.00008     0.00076    -0.00018    -0.00013     0.00000     0.00568
 PZ  C  26  -0.00012     0.00171    -0.00006    -0.00024     0.00018     0.00002
  
  S  C  27  -0.00013    -0.00042     0.00028     0.00025     0.00005     0.00092
 PX  C  27   0.00008     0.00004    -0.00017    -0.00004     0.00002     0.00273
 PY  C  27   0.00014    -0.00158    -0.00027    -0.00009    -0.00003    -0.00026
 PZ  C  27   0.00001     0.00281    -0.00007    -0.00021    -0.00005    -0.00224
  
  S  H  28   0.00004     0.00474    -0.00008    -0.00024    -0.00004    -0.00508
  
  S  H  29   0.00001     0.00094    -0.00008    -0.00012     0.00002     0.00127
  
  S  H  30   0.00021    -0.00247    -0.00032    -0.00009    -0.00009     0.00208
  
  S  C  31   0.00020    -0.00170     0.00002     0.00029    -0.00015     0.00088
 PX  C  31   0.00008    -0.00041    -0.00001     0.00008    -0.00003     0.00050
 PY  C  31  -0.00009     0.00073    -0.00002    -0.00013     0.00007    -0.00020
 PZ  C  31  -0.00041     0.00268    -0.00004    -0.00044     0.00024    -0.00128
  
  S  H  32  -0.00007     0.00069     0.00001    -0.00011     0.00005    -0.00051
  
  S  H  33   0.00004    -0.00035     0.00001     0.00004    -0.00003    -0.00033
  
  S  H  34   0.00009    -0.00024     0.00002     0.00003    -0.00003     0.00038
  
  S  H  35  -0.00028     0.00239     0.00000    -0.00044     0.00014    -0.00024
  
  S  C  36  -0.00046    -0.00173    -0.00043     0.00006    -0.00005     0.00127
 PX  C  36   0.00019     0.00079     0.00012    -0.00007     0.00006    -0.00033
 PY  C  36   0.00039    -0.00246    -0.00013     0.00021    -0.00025     0.00167
 PZ  C  36  -0.00090     0.00120    -0.00021    -0.00014     0.00007    -0.00098
  
  S  C  37  -0.00222     0.00434     0.00183    -0.00035     0.00202    -0.00699
 PX  C  37   0.00183    -0.00603    -0.00303     0.00075    -0.00109     0.00182
 PY  C  37   0.00048    -0.00365    -0.00030     0.00024    -0.00042    -0.00356
 PZ  C  37   0.00113     0.00068    -0.00013    -0.00010    -0.00122    -0.00445
  
  S  H  38   0.00122    -0.00025     0.00090     0.00016    -0.00025     0.00028
  
  S  H  39   0.00002     0.00059     0.00030     0.00001     0.00004    -0.00053
  
  S  H  40   0.00016     0.00011    -0.00002    -0.00001    -0.00007    -0.00040
  
  S  C  41   0.00045     0.00179    -0.00002    -0.00025    -0.00044    -0.00051
 PX  C  41  -0.00036    -0.00118     0.00003     0.00017     0.00020     0.00021
 PY  C  41  -0.00011    -0.00005     0.00004     0.00012     0.00009    -0.00016
 PZ  C  41   0.00084     0.00213    -0.00008    -0.00050    -0.00075    -0.00020
  
  S  H  42   0.00340    -0.01062    -0.00304     0.00136    -0.00426     0.00472
  
  S  H  43  -0.00021     0.00051     0.00028    -0.00006     0.00011     0.00005
  
  S  H  44   0.00010    -0.00013    -0.00007    -0.00011    -0.00009     0.00036
  
  S  H  45   0.00007    -0.00082    -0.00003     0.00012    -0.00004    -0.00016




    ROOT NO.    7           8           9          10          11          12

           -16.18838   -16.11633   -16.04747   -15.98330   -15.84765   -15.78041
  
  
  S  C   1  -0.00004    -0.00001     0.00022    -0.00003    -0.00102     0.00902
 PX  C   1   0.00115     0.00011    -0.00027     0.00002     0.00132    -0.00417
 PY  C   1  -0.00135    -0.00016     0.00103    -0.00007    -0.00418     0.00030
 PZ  C   1  -0.00082    -0.00009     0.00056    -0.00004    -0.00232    -0.00606
  
  S  C   2   0.00202    -0.00006     0.00124     0.00013    -0.00042     0.00658
 PX  C   2   0.00202     0.00006     0.00063     0.00022     0.00096     0.00508
 PY  C   2   0.00045    -0.00017     0.00144    -0.00014    -0.00338     0.00346
 PZ  C   2  -0.00132     0.00006    -0.00016    -0.00023    -0.00199     0.00086
  
  S  C   3   0.00007    -0.00000     0.00013    -0.00000    -0.00027     0.01149
 PX  C   3  -0.00127    -0.00015     0.00077    -0.00019    -0.00363    -0.01654
 PY  C   3   0.00168     0.00019    -0.00080     0.00023     0.00419    -0.00331
 PZ  C   3   0.00092     0.00011    -0.00050     0.00013     0.00241    -0.01686
  
  S  H   4   0.00022    -0.00001     0.00005     0.00002     0.00027    -0.00396
  
  S  C   5   0.00063    -0.00005     0.00094     0.00002    -0.00183    -0.41934
 PX  C   5   0.00170     0.00005     0.00055     0.00021     0.00083    -0.46432
 PY  C   5  -0.00081    -0.00020     0.00142    -0.00022    -0.00514    -0.30164
 PZ  C   5  -0.00064    -0.00010     0.00048    -0.00011    -0.00219    -0.10432
  
  S  H   6   0.00006    -0.00001     0.00013     0.00000    -0.00031    -0.02780
  
  S  C   7  -0.00219     0.00018    -0.00271    -0.00013     0.00359    -0.42769
 PX  C   7  -0.00006     0.00026    -0.00205     0.00004     0.00424     0.46858
 PY  C   7  -0.00149    -0.00016     0.00118    -0.00024    -0.00526     0.30648
 PZ  C   7  -0.00311     0.00010    -0.00228    -0.00025     0.00092     0.07679
  
  S  H   8  -0.00048     0.00004    -0.00064    -0.00002     0.00093     0.01379
  
  S  C   9   0.00220    -0.00029     0.00630    -0.00014    -0.02055     0.01803
 PX  C   9  -0.00253    -0.00099     0.01105    -0.00079    -0.04142     0.02309
 PY  C   9   0.01149     0.00043     0.00169     0.00105     0.00671     0.02095
 PZ  C   9   0.00242     0.00040    -0.00342     0.00044     0.01205    -0.00633
  
  S  H  10  -0.00030     0.00003    -0.00046    -0.00000     0.00079     0.00944
  
  S  O  11  -0.00049    -0.00004    -0.00022    -0.00001    -0.00002    -0.00124
 PX  O  11   0.00088     0.00004     0.00040    -0.00002    -0.00022     0.00233
 PY  O  11   0.00037     0.00006    -0.00013     0.00005     0.00080    -0.00007
 PZ  O  11  -0.00028    -0.00005     0.00027     0.00005    -0.00093     0.00229
  
  S  C  12   0.00078     0.00006     0.00011     0.00001     0.00067     0.00042
 PX  C  12   0.00063     0.00004     0.00019     0.00001     0.00030     0.00027
 PY  C  12   0.00072     0.00006     0.00011     0.00003     0.00063     0.00031
 PZ  C  12  -0.00139    -0.00013    -0.00029     0.00000    -0.00087    -0.00079
  
  S  H  13  -0.00005    -0.00001     0.00010    -0.00001    -0.00033     0.00013
  
  S  H  14  -0.00014     0.00002    -0.00009    -0.00004    -0.00008    -0.00044
  
  S  H  15  -0.00001     0.00001    -0.00005     0.00002     0.00013    -0.00003
  
  S  N  16  -0.01138     0.00110    -0.01394    -0.00083     0.01682    -0.01555
 PX  N  16  -0.00987     0.00124    -0.00995    -0.00152    -0.00377     0.00896
 PY  N  16   0.00333    -0.00041     0.00947     0.00039    -0.02630     0.01799
 PZ  N  16  -0.02115     0.00203    -0.01991    -0.00190     0.00786    -0.00888
  
  S  C  17   0.02065    -0.00694     0.02042     0.00765    -0.44039     0.00947
 PX  C  17  -0.01886     0.00086    -0.02831     0.00374    -0.07673    -0.00956
 PY  C  17  -0.01657    -0.00504     0.00937    -0.00546    -0.46186     0.00087
 PZ  C  17  -0.01489    -0.00202    -0.01016    -0.00117    -0.26265    -0.00999
  
  S  C  18   0.00422    -0.01524    -0.42389     0.00777    -0.43695    -0.00201
 PX  C  18  -0.00192     0.00626    -0.47795     0.00650     0.12868    -0.00079
 PY  C  18  -0.00165    -0.02425    -0.04851     0.00177     0.46493     0.00159
 PZ  C  18  -0.00254    -0.00761    -0.28596     0.00454     0.29200     0.00223
  
  S  C  19  -0.43155    -0.00784     0.00511     0.01510     0.02466    -0.00043
 PX  C  19  -0.46169    -0.00666    -0.00370     0.00882    -0.02310    -0.00078
 PY  C  19  -0.06624     0.00030     0.00234    -0.02548    -0.00469    -0.00119
 PZ  C  19  -0.30345    -0.00339    -0.00231    -0.00746    -0.01459     0.00092
  
  S  C  20   0.00878     0.41740    -0.42201     0.00903     0.01428     0.00098
 PX  C  20   0.00589     0.37529     0.48283     0.01400    -0.00999    -0.00163
 PY  C  20  -0.00378    -0.42300     0.06099     0.01518     0.02088    -0.00029
 PZ  C  20  -0.00042     0.02383     0.29459     0.01439     0.00687    -0.00002
  
  S  C  21  -0.42056    -0.00902     0.00880    -0.41460     0.00490     0.00066
 PX  C  21   0.47411    -0.02078     0.00184    -0.09484    -0.00245    -0.00095
 PY  C  21   0.06211     0.01018     0.00536    -0.48258     0.00006    -0.00031
 PZ  C  21   0.30598    -0.00771     0.00381    -0.28163    -0.00455    -0.00037
  
  S  C  22   0.01148     0.41435     0.01180    -0.41260     0.00632     0.00021
 PX  C  22   0.01942    -0.38219     0.01207     0.10318    -0.00335     0.00038
 PY  C  22  -0.01130     0.42759     0.01554     0.49765     0.00460     0.00043
 PZ  C  22   0.00724    -0.03116     0.01358     0.27248    -0.00002    -0.00103
  
  S  H  23   0.01225     0.02868    -0.00407     0.01450    -0.00156    -0.00025
  
  S  H  24  -0.02775    -0.01108    -0.02795     0.01084    -0.00237     0.00018
  
  S  H  25  -0.00429    -0.01333     0.01361    -0.02900    -0.02868    -0.00055
  
  S  C  26  -0.00140     0.01657     0.01808    -0.00115     0.01765    -0.00028
 PX  C  26  -0.00126     0.00902    -0.01324    -0.00089     0.01741    -0.00018
 PY  C  26   0.00187    -0.02263    -0.01623     0.00212    -0.00033     0.00052
 PZ  C  26  -0.00011    -0.00412    -0.01670     0.00024     0.01618     0.00021
  
  S  C  27  -0.00031    -0.00314    -0.01358     0.00033     0.00680    -0.00057
 PX  C  27  -0.00008    -0.00429    -0.01910     0.00049     0.00579     0.00001
 PY  C  27   0.00011    -0.00071    -0.00296     0.00004     0.00023     0.00016
 PZ  C  27   0.00036    -0.00241    -0.01024     0.00028     0.00262     0.00091
  
  S  H  28   0.00051    -0.00050    -0.00101     0.00007    -0.00081     0.00104
  
  S  H  29  -0.00008     0.00240     0.00409    -0.00024    -0.00230     0.00023
  
  S  H  30   0.00005    -0.00053    -0.00112     0.00010    -0.00152    -0.00009
  
  S  C  31   0.00035     0.00210     0.00444     0.00085    -0.00646    -0.00016
 PX  C  31   0.00025     0.00190     0.00001     0.00108    -0.00094    -0.00003
 PY  C  31  -0.00006     0.00070     0.00024     0.00035     0.00135     0.00007
 PZ  C  31  -0.00026     0.00056    -0.00331     0.00071     0.01459     0.00026
  
  S  H  32  -0.00022     0.00036    -0.00303    -0.00036     0.00242     0.00001
  
  S  H  33  -0.00008    -0.00345    -0.00040    -0.00135    -0.00225    -0.00003
  
  S  H  34   0.00004    -0.00048    -0.00124    -0.00003    -0.00255    -0.00001
  
  S  H  35   0.00028     0.00003     0.00008    -0.00015    -0.01249     0.00012
  
  S  C  36   0.00607    -0.00077     0.00047    -0.00222     0.00252    -0.00005
 PX  C  36  -0.00256    -0.00106    -0.00007    -0.00148    -0.00150     0.00004
 PY  C  36   0.00381     0.00024     0.00050     0.00015     0.00307    -0.00007
 PZ  C  36  -0.00318    -0.00014    -0.00028     0.00051    -0.00257     0.00001
  
  S  C  37   0.01251     0.00142    -0.00187    -0.01593    -0.01600    -0.00029
 PX  C  37  -0.01193     0.00033    -0.00042    -0.00172    -0.00700    -0.00003
 PY  C  37   0.01632     0.00237    -0.00196    -0.02281    -0.01765    -0.00049
 PZ  C  37  -0.00172     0.00120    -0.00143    -0.01356    -0.01492    -0.00021
  
  S  H  38  -0.00180    -0.00002     0.00008     0.00053     0.00079     0.00001
  
  S  H  39  -0.00066     0.00093    -0.00003     0.00298     0.00057    -0.00002
  
  S  H  40  -0.00274     0.00064    -0.00029     0.00015    -0.00219    -0.00002
  
  S  C  41   0.00017    -0.00026     0.00011    -0.00008     0.00088    -0.00003
 PX  C  41   0.00356    -0.00008    -0.00001    -0.00104    -0.00064    -0.00001
 PY  C  41   0.00056    -0.00004    -0.00008    -0.00038    -0.00050    -0.00020
 PZ  C  41  -0.00269    -0.00019     0.00026     0.00032     0.00123     0.00030
  
  S  H  42  -0.01933    -0.00058     0.00001     0.00353    -0.00208    -0.00028
  
  S  H  43  -0.00317     0.00016     0.00000     0.00147     0.00064     0.00005
  
  S  H  44  -0.00103    -0.00000     0.00008     0.00043     0.00021     0.00033
  
  S  H  45  -0.00018     0.00018    -0.00012    -0.00165    -0.00166    -0.00008




    ROOT NO.   13          14          15          16          17          18

           -15.67346   -15.67268   -15.63515   -15.50635   -15.34135   -14.42963
  
  
  S  C   1  -0.00010    -0.02059    -0.00858    -0.41722    -0.00254    -0.00487
 PX  C   1   0.00335    -0.01021     0.01612     0.27709    -0.00039     0.01170
 PY  C   1  -0.00396     0.00922     0.01687    -0.06709    -0.00269    -0.00192
 PZ  C   1  -0.00248    -0.01992    -0.00798     0.49734    -0.00190    -0.00664
  
  S  C   2   0.00400     0.46972    -0.00760     0.02487    -0.03268     0.00172
 PX  C   2   0.00587     0.24212     0.00562     0.01741    -0.03211     0.00068
 PY  C   2  -0.00150     0.37380     0.00564    -0.01339    -0.00757     0.00751
 PZ  C   2  -0.00263    -0.33101    -0.00135     0.04791    -0.02786     0.01016
  
  S  C   3   0.00009    -0.00410     0.41655    -0.40397    -0.00934     0.00225
 PX  C   3  -0.00454    -0.00071     0.19641    -0.27882    -0.00273     0.00101
 PY  C   3   0.00581     0.00090     0.37434     0.06414    -0.00461     0.00097
 PZ  C   3   0.00339    -0.00394    -0.38900    -0.49559     0.00379     0.00297
  
  S  H   4   0.00038     0.02789     0.02823     0.00978     0.00252     0.01001
  
  S  C   5   0.00064    -0.00591     0.41707     0.00989    -0.01202    -0.00054
 PX  C   5   0.00459    -0.00360    -0.19758    -0.01916    -0.00066    -0.00172
 PY  C   5  -0.00472    -0.00373    -0.36337    -0.00430    -0.00949     0.00335
 PZ  C   5  -0.00283    -0.00127     0.38465    -0.01639     0.02462     0.00116
  
  S  H   6   0.00004     0.00179    -0.01007     0.01005     0.00353     0.00032
  
  S  C   7  -0.00174    -0.02094    -0.01066     0.00917     0.40057     0.00040
 PX  C   7   0.00368    -0.02220     0.00591    -0.00529     0.28649     0.00188
 PY  C   7  -0.00569    -0.00944    -0.00671    -0.00389    -0.04504    -0.00180
 PZ  C   7  -0.00446    -0.01208     0.02094    -0.00076     0.50229    -0.00027
  
  S  H   8  -0.00033     0.00137    -0.01566    -0.02963     0.02923     0.00054
  
  S  C   9   0.00101     0.41219    -0.00866     0.00581     0.44558    -0.00079
 PX  C   9  -0.02021    -0.17036     0.00329     0.00042    -0.27721     0.00149
 PY  C   9   0.03788    -0.34348    -0.00032    -0.00238     0.04567    -0.00074
 PZ  C   9   0.01375     0.37770     0.00712     0.00387    -0.46315    -0.00083
  
  S  H  10  -0.00014     0.02423     0.02737    -0.00404    -0.00485    -0.00021
  
  S  O  11  -0.00151    -0.01537    -0.00010    -0.01232     0.01363    -0.00290
 PX  O  11   0.00249     0.02924    -0.00044     0.02350    -0.02571     0.00494
 PY  O  11   0.00174     0.01802     0.00044     0.00161    -0.00512    -0.00275
 PZ  O  11  -0.00071    -0.02148    -0.00248     0.02033    -0.01147     0.00059
  
  S  C  12   0.00198     0.02391     0.00036    -0.00029    -0.00801     0.39991
 PX  C  12   0.00166     0.02645     0.00135     0.00327    -0.00895    -0.00195
 PY  C  12   0.00207     0.02229     0.00121     0.00289    -0.00783    -0.62494
 PZ  C  12  -0.00417    -0.04662    -0.00241    -0.00726     0.01705    -0.09343
  
  S  H  13  -0.00015     0.00317     0.00038     0.00338    -0.00192    -0.00325
  
  S  H  14   0.00001    -0.00227     0.00083    -0.00051     0.00319    -0.00144
  
  S  H  15   0.00020    -0.00012     0.00023     0.00163     0.00017     0.66348
  
  S  N  16  -0.00908    -0.00639     0.00066    -0.00102    -0.02027    -0.00021
 PX  N  16  -0.00155     0.02139    -0.00086     0.00221    -0.01700    -0.00010
 PY  N  16  -0.00346     0.01566    -0.00122     0.00245     0.01252     0.00050
 PZ  N  16  -0.02098     0.00807    -0.00019    -0.00016    -0.03234    -0.00037
  
  S  C  17   0.43644    -0.00939    -0.00022    -0.00047     0.03126     0.00015
 PX  C  17   0.35035     0.02217     0.00047     0.00062    -0.03663    -0.00139
 PY  C  17  -0.40699     0.01394     0.00007     0.00041    -0.00378    -0.00080
 PZ  C  17   0.03219    -0.01804     0.00006    -0.00037    -0.02231     0.00145
  
  S  C  18  -0.02534     0.00059     0.00010    -0.00003    -0.00373    -0.00002
 PX  C  18   0.02562    -0.00328    -0.00002     0.00002    -0.00094     0.00027
 PY  C  18  -0.00009    -0.00396    -0.00009    -0.00002     0.00402     0.00025
 PZ  C  18   0.01529     0.00679    -0.00010     0.00013     0.00072    -0.00056
  
  S  C  19   0.43234     0.00234    -0.00005     0.00006    -0.00183    -0.00002
 PX  C  19  -0.39866    -0.00514     0.00004    -0.00014     0.00031     0.00009
 PY  C  19   0.40491    -0.00051    -0.00003     0.00003    -0.00216     0.00017
 PZ  C  19  -0.03807     0.00626    -0.00001     0.00019    -0.00124    -0.00034
  
  S  C  20  -0.00583    -0.00056    -0.00004    -0.00001     0.00247     0.00004
 PX  C  20   0.00591    -0.00178     0.00000    -0.00011    -0.00287     0.00008
 PY  C  20   0.00045    -0.00207    -0.00003    -0.00010     0.00025     0.00011
 PZ  C  20   0.00102     0.00511     0.00012     0.00021    -0.00218    -0.00028
  
  S  C  21  -0.01413    -0.00092    -0.00001    -0.00002     0.00193     0.00004
 PX  C  21  -0.00529    -0.00083    -0.00000     0.00011    -0.00209     0.00019
 PY  C  21   0.02254    -0.00109    -0.00002     0.00010    -0.00049     0.00022
 PZ  C  21   0.00962     0.00387     0.00005    -0.00018    -0.00206    -0.00052
  
  S  C  22  -0.00707    -0.00020    -0.00000    -0.00001     0.00056     0.00001
 PX  C  22   0.00057     0.00351     0.00003     0.00005    -0.00074    -0.00027
 PY  C  22   0.00561     0.00257     0.00002     0.00003    -0.00028    -0.00020
 PZ  C  22   0.00262    -0.00581    -0.00004    -0.00007     0.00031     0.00047
  
  S  H  23   0.02898     0.00048    -0.00000     0.00002    -0.00078     0.00001
  
  S  H  24   0.00262    -0.00018    -0.00001     0.00000     0.00046     0.00001
  
  S  H  25   0.00214     0.00026     0.00002     0.00000    -0.00112    -0.00002
  
  S  C  26   0.01683     0.00041     0.00002     0.00000    -0.00074    -0.00004
 PX  C  26   0.01510     0.00010    -0.00001     0.00001    -0.00061     0.00001
 PY  C  26  -0.02116    -0.00030    -0.00001    -0.00002     0.00122     0.00001
 PZ  C  26   0.00209     0.00045     0.00002     0.00001     0.00014    -0.00003
  
  S  C  27   0.00020    -0.00134    -0.00015    -0.00000    -0.00128     0.00002
 PX  C  27   0.00105     0.00061     0.00000    -0.00000     0.00035    -0.00000
 PY  C  27   0.00010     0.00085     0.00006     0.00001     0.00051    -0.00002
 PZ  C  27   0.00111     0.00000     0.00016     0.00000     0.00114     0.00003
  
  S  H  28   0.00144     0.00095     0.00027    -0.00004     0.00181     0.00002
  
  S  H  29   0.00126     0.00039     0.00001     0.00002     0.00040     0.00001
  
  S  H  30  -0.00030     0.00198     0.00006    -0.00003     0.00087    -0.00008
  
  S  C  31  -0.00201    -0.00058    -0.00001    -0.00001    -0.00001     0.00009
 PX  C  31  -0.00042    -0.00014    -0.00000     0.00000     0.00003    -0.00001
 PY  C  31   0.00032     0.00024     0.00000     0.00000    -0.00000    -0.00007
 PZ  C  31   0.00352     0.00077     0.00002    -0.00000     0.00009    -0.00004
  
  S  H  32   0.00219     0.00026    -0.00000     0.00001    -0.00011    -0.00002
  
  S  H  33  -0.00048    -0.00004     0.00001    -0.00000    -0.00004     0.00000
  
  S  H  34  -0.00097    -0.00005    -0.00000     0.00000     0.00000    -0.00010
  
  S  H  35  -0.00228     0.00091     0.00000     0.00001    -0.00017    -0.00006
  
  S  C  36   0.00978    -0.00007    -0.00001    -0.00008     0.00012    -0.00057
 PX  C  36  -0.00718     0.00026     0.00001     0.00004    -0.00007     0.00030
 PY  C  36   0.01353     0.00030     0.00001     0.00003     0.00003     0.00013
 PZ  C  36  -0.01154    -0.00042    -0.00001    -0.00014     0.00014    -0.00079
  
  S  C  37  -0.02145    -0.00563    -0.00012    -0.00024    -0.00061    -0.00018
 PX  C  37  -0.01862     0.00718     0.00016     0.00034    -0.00010     0.00021
 PY  C  37   0.00519     0.00172     0.00004     0.00004    -0.00112     0.00007
 PZ  C  37  -0.01304     0.00250     0.00006     0.00010    -0.00097    -0.00002
  
  S  H  38   0.00196     0.00032     0.00002     0.00011    -0.00009     0.00124
  
  S  H  39   0.00182    -0.00058    -0.00001     0.00000    -0.00002     0.00013
  
  S  H  40  -0.00283     0.00039     0.00001     0.00004    -0.00014     0.00009
  
  S  C  41   0.00199     0.00100    -0.00003     0.00009    -0.00048    -0.00004
 PX  C  41  -0.00226    -0.00059     0.00002    -0.00009     0.00025     0.00002
 PY  C  41  -0.00251    -0.00030    -0.00005    -0.00001    -0.00024     0.00001
 PZ  C  41   0.00683     0.00197     0.00006     0.00015    -0.00013    -0.00004
  
  S  H  42  -0.00540     0.01168     0.00023     0.00001     0.00045     0.00030
  
  S  H  43   0.00106    -0.00057    -0.00001    -0.00005     0.00020    -0.00002
  
  S  H  44   0.00234     0.00055     0.00009     0.00000     0.00052     0.00000
  
  S  H  45   0.00006    -0.00003     0.00001    -0.00000    -0.00003     0.00001




    ROOT NO.   19          20          21          22          23          24

           -14.41768   -14.36881   -14.05554   -14.00673   -14.00337   -13.99387
  
  
  S  C   1  -0.00486     0.00055    -0.00001    -0.00016     0.00012    -0.00007
 PX  C   1  -0.00103    -0.00578    -0.00008    -0.00060    -0.00024    -0.00025
 PY  C   1   0.01237     0.00050     0.00004     0.00034     0.00063     0.00009
 PZ  C   1   0.00281     0.00254     0.00003     0.00025     0.00035     0.00009
  
  S  C   2  -0.00817     0.02968    -0.00022    -0.00077     0.00028    -0.00050
 PX  C   2   0.00068     0.02843    -0.00017    -0.00070    -0.00003    -0.00017
 PY  C   2  -0.00649    -0.00733    -0.00014    -0.00066     0.00067    -0.00054
 PZ  C   2  -0.00887     0.04135     0.00005    -0.00042     0.00017    -0.00001
  
  S  C   3   0.00204     0.00106    -0.00002    -0.00004     0.00004    -0.00004
 PX  C   3   0.00289     0.00088     0.00003     0.00010     0.00057     0.00001
 PY  C   3  -0.00162    -0.00074    -0.00006    -0.00017    -0.00065    -0.00006
 PZ  C   3   0.00102     0.00202    -0.00003    -0.00012    -0.00038    -0.00002
  
  S  H   4   0.00858    -0.00668    -0.00002    -0.00000    -0.00000    -0.00002
  
  S  C   5  -0.00073     0.00089    -0.00011    -0.00026     0.00032    -0.00027
 PX  C   5   0.00139     0.00159    -0.00014    -0.00006    -0.00004    -0.00047
 PY  C   5  -0.00104    -0.00212    -0.00006    -0.00049     0.00076     0.00001
 PZ  C   5  -0.00132    -0.00051     0.00000    -0.00019     0.00031     0.00008
  
  S  H   6   0.00035    -0.00080    -0.00001    -0.00004     0.00005    -0.00003
  
  S  C   7  -0.00069     0.00258     0.00032     0.00049    -0.00076     0.00078
 PX  C   7  -0.00182     0.00152     0.00015    -0.00012    -0.00083     0.00058
 PY  C   7   0.00184     0.00065     0.00002     0.00037     0.00079    -0.00023
 PZ  C   7   0.00018     0.00398     0.00037     0.00060    -0.00040     0.00071
  
  S  H   8   0.00036     0.00032     0.00008     0.00014    -0.00020     0.00019
  
  S  C   9   0.00263    -0.00429    -0.00051    -0.00117     0.00236    -0.00197
 PX  C   9  -0.00092     0.00200    -0.00055    -0.00224     0.00497    -0.00245
 PY  C   9  -0.00294     0.00542    -0.00073    -0.00203    -0.00069    -0.00251
 PZ  C   9   0.00155    -0.00135     0.00007     0.00018    -0.00170     0.00021
  
  S  H  10   0.00032    -0.00103     0.00006     0.00015    -0.00016     0.00015
  
  S  O  11   0.00018    -0.01217     0.00007     0.00049    -0.00002     0.00015
 PX  O  11  -0.00494     0.02362    -0.00011    -0.00087     0.00013    -0.00029
 PY  O  11   0.00370     0.00095    -0.00002    -0.00027    -0.00010    -0.00003
 PZ  O  11  -0.00620     0.02635     0.00001     0.00018     0.00009     0.00003
  
  S  C  12   0.40202     0.39803    -0.00008    -0.00056    -0.00003    -0.00017
 PX  C  12  -0.58305     0.38507    -0.00008    -0.00048     0.00001    -0.00017
 PY  C  12   0.24583     0.18029    -0.00008    -0.00054    -0.00004    -0.00018
 PZ  C  12   0.04195     0.47472     0.00018     0.00121     0.00003     0.00036
  
  S  H  13   0.66005     0.00086    -0.00001     0.00003     0.00005    -0.00002
  
  S  H  14   0.00088     0.65604     0.00001    -0.00004    -0.00001     0.00002
  
  S  H  15  -0.00313    -0.00137     0.00001     0.00002    -0.00003     0.00000
  
  S  N  16   0.00008    -0.00084     0.00129     0.00486    -0.00334     0.00502
 PX  N  16  -0.00022     0.00068     0.00096     0.00379    -0.00137     0.00230
 PY  N  16   0.00048     0.00043    -0.00069    -0.00347     0.00234    -0.00154
 PZ  N  16   0.00020    -0.00089     0.00213     0.00660    -0.00437     0.00691
  
  S  C  17  -0.00016     0.00045     0.00049     0.01909     0.01893     0.01994
 PX  C  17   0.00016    -0.00072     0.00213     0.02024    -0.00306     0.02750
 PY  C  17  -0.00014    -0.00029     0.00015     0.01298     0.01892    -0.00748
 PZ  C  17  -0.00004    -0.00053     0.00096     0.02047     0.00894     0.01391
  
  S  C  18   0.00007     0.00004     0.01822    -0.01713    -0.01601    -0.42130
 PX  C  18   0.00006     0.00007     0.01860     0.00971    -0.00691     0.37167
 PY  C  18  -0.00002     0.00004     0.00629     0.01525     0.02712    -0.44679
 PZ  C  18  -0.00016    -0.00029     0.01226     0.01288     0.00857     0.00068
  
  S  C  19  -0.00001    -0.00025     0.01772    -0.42004     0.00041    -0.01709
 PX  C  19  -0.00020     0.00020     0.01892     0.07925     0.00136     0.01812
 PY  C  19  -0.00004    -0.00015    -0.00226     0.49491     0.00080    -0.01286
 PZ  C  19   0.00010    -0.00016     0.01147     0.29809     0.00076     0.00501
  
  S  C  20  -0.00001     0.00004    -0.01925    -0.00273     0.44230     0.02094
 PX  C  20  -0.00009    -0.00014     0.01887     0.00054     0.11377     0.00615
 PY  C  20  -0.00009    -0.00006     0.01018     0.00207     0.51490    -0.02558
 PZ  C  20   0.00018     0.00004     0.01633     0.00072     0.28442    -0.00717
  
  S  C  21   0.00002     0.00007    -0.01891     0.02143     0.01697    -0.00260
 PX  C  21   0.00010     0.00002     0.02386    -0.00991     0.00761     0.00172
 PY  C  21   0.00007     0.00011    -0.00410     0.02453     0.01728    -0.00152
 PZ  C  21  -0.00020    -0.00036     0.00980     0.00922     0.01238    -0.00073
  
  S  C  22  -0.00000     0.00002     0.44970    -0.01745    -0.01885    -0.01706
 PX  C  22  -0.00000    -0.00010     0.50334     0.00088     0.01279     0.01305
 PY  C  22  -0.00001    -0.00008     0.06890     0.02252     0.01715    -0.01996
 PZ  C  22   0.00000     0.00012     0.31520     0.00957     0.01477    -0.00101
  
  S  H  23  -0.00000    -0.00003    -0.00485     0.00778    -0.00538    -0.00263
  
  S  H  24  -0.00000     0.00003     0.66058     0.00492    -0.00577     0.00486
  
  S  H  25   0.00001     0.00001    -0.00510    -0.00247     0.66375     0.00815
  
  S  C  26  -0.00000    -0.00003    -0.00308     0.00374    -0.01075    -0.36159
 PX  C  26  -0.00000    -0.00003    -0.00085     0.00333    -0.00178    -0.29819
 PY  C  26  -0.00002     0.00002     0.00415    -0.00405     0.00585     0.50810
 PZ  C  26  -0.00001    -0.00001     0.00131     0.00106     0.00325     0.01521
  
  S  C  27  -0.00014    -0.00008     0.00140     0.00075     0.00266     0.01328
 PX  C  27   0.00010     0.00006     0.00197     0.00069     0.00426     0.00266
 PY  C  27   0.00015     0.00010     0.00024    -0.00008     0.00021     0.01568
 PZ  C  27  -0.00004    -0.00002     0.00101     0.00012     0.00231     0.00597
  
  S  H  28   0.00001     0.00001     0.00018    -0.00030     0.00035     0.00148
  
  S  H  29   0.00002     0.00001    -0.00068     0.00005    -0.00072    -0.02384
  
  S  H  30   0.00029     0.00014     0.00023    -0.00019    -0.00019     0.00406
  
  S  C  31  -0.00004    -0.00011    -0.00009    -0.00083    -0.01086     0.01190
 PX  C  31   0.00004     0.00010     0.00013    -0.00015    -0.01073    -0.00737
 PY  C  31   0.00005     0.00014     0.00019     0.00026    -0.00435     0.01172
 PZ  C  31  -0.00005    -0.00014     0.00053     0.00174    -0.00758    -0.01106
  
  S  H  32   0.00000     0.00000    -0.00016     0.00058     0.00401    -0.02391
  
  S  H  33   0.00001     0.00001    -0.00035    -0.00032     0.02021     0.00254
  
  S  H  34   0.00011     0.00029     0.00010    -0.00037     0.00150     0.00521
  
  S  H  35  -0.00002    -0.00003    -0.00038    -0.00132     0.00375     0.00730
  
  S  C  36   0.00025    -0.00051    -0.00033     0.01198     0.00024    -0.00120
 PX  C  36  -0.00013     0.00032     0.00050    -0.00834     0.00037     0.00088
 PY  C  36   0.00002     0.00010    -0.00067    -0.00362    -0.00010    -0.00176
 PZ  C  36   0.00031    -0.00080     0.00036    -0.01481     0.00009     0.00131
  
  S  C  37  -0.00043    -0.00065    -0.00262    -0.35816     0.00136     0.00404
 PX  C  37   0.00041     0.00077    -0.00006    -0.09549     0.00045     0.00164
 PY  C  37   0.00008     0.00008    -0.00423    -0.48607     0.00201     0.00299
 PZ  C  37   0.00028     0.00018    -0.00185    -0.32116     0.00147     0.00325
  
  S  H  38  -0.00061     0.00115     0.00012     0.00384    -0.00005    -0.00033
  
  S  H  39  -0.00007     0.00001    -0.00019     0.00371    -0.00032    -0.00027
  
  S  H  40   0.00001     0.00007    -0.00022    -0.02334     0.00002     0.00059
  
  S  C  41   0.00012     0.00008     0.00019     0.01173     0.00003    -0.00029
 PX  C  41  -0.00008    -0.00007    -0.00034    -0.00831     0.00011     0.00024
 PY  C  41  -0.00002    -0.00003    -0.00009    -0.01546     0.00003     0.00031
 PZ  C  41   0.00019     0.00017     0.00029    -0.00022    -0.00000    -0.00072
  
  S  H  42   0.00076     0.00083     0.00178     0.00555     0.00011     0.00081
  
  S  H  43  -0.00005    -0.00009     0.00026     0.00553    -0.00015    -0.00020
  
  S  H  44   0.00003     0.00005     0.00014     0.00181    -0.00002    -0.00023
  
  S  H  45   0.00001     0.00001    -0.00034    -0.02443     0.00022     0.00033




    ROOT NO.   25          26          27          28          29          30

           -13.95224   -13.94215   -13.73767   -13.71831   -13.65832   -13.61720
  
  
  S  C   1   0.44443    -0.00003     0.01688    -0.00006     0.00003    -0.01873
 PX  C   1  -0.20364     0.00048    -0.01361    -0.00017     0.00009    -0.02038
 PY  C   1  -0.38991    -0.00057    -0.00020     0.00009    -0.00004    -0.01797
 PZ  C   1   0.40510    -0.00035    -0.01768     0.00005    -0.00003     0.00138
  
  S  C   2  -0.00994     0.00065    -0.00133     0.00026    -0.00009     0.02108
 PX  C   2   0.00816     0.00094    -0.00286     0.00004    -0.00004    -0.01407
 PY  C   2  -0.01710    -0.00018    -0.00120     0.00029    -0.00010    -0.01418
 PZ  C   2   0.04046    -0.00052    -0.00250    -0.00005     0.00005     0.00576
  
  S  C   3  -0.01696     0.00002    -0.02058    -0.00001     0.00001     0.45063
 PX  C   3  -0.01382    -0.00073    -0.01908     0.00013    -0.00004    -0.48902
 PY  C   3  -0.01686     0.00095    -0.00491    -0.00017     0.00006    -0.32463
 PZ  C   3   0.01078     0.00055    -0.01748    -0.00010     0.00003    -0.10891
  
  S  H   4   0.66271     0.00008    -0.00510     0.00005    -0.00002    -0.00525
  
  S  C   5   0.01619     0.00017     0.44086     0.00001     0.00000    -0.01881
 PX  C   5  -0.01041     0.00082    -0.28720    -0.00005    -0.00001    -0.02117
 PY  C   5  -0.01447    -0.00071     0.06433     0.00006     0.00002    -0.01100
 PZ  C   5   0.01110    -0.00045    -0.51503     0.00004     0.00001    -0.01253
  
  S  H   6  -0.00539     0.00001    -0.00542    -0.00000     0.00000     0.66074
  
  S  C   7   0.00114    -0.00055    -0.02120    -0.00011     0.00004     0.01715
 PX  C   7  -0.00074     0.00037    -0.00669    -0.00022     0.00007    -0.01898
 PY  C   7  -0.00056    -0.00083     0.00836     0.00018    -0.00006    -0.01036
 PZ  C   7   0.00011    -0.00100    -0.02627     0.00004    -0.00005    -0.00604
  
  S  H   8  -0.00535    -0.00012     0.67039    -0.00001    -0.00000    -0.00499
  
  S  C   9   0.02019     0.00039     0.02137    -0.00044     0.00029     0.00029
 PX  C   9  -0.00350    -0.00239    -0.00799     0.00010     0.00021    -0.00184
 PY  C   9  -0.01315     0.00521     0.00481    -0.00073     0.00029    -0.00097
 PZ  C   9   0.01957     0.00163    -0.02095    -0.00059     0.00016    -0.00127
  
  S  H  10   0.00204    -0.00008    -0.00561     0.00001    -0.00003    -0.00406
  
  S  O  11  -0.00882    -0.00023     0.00158    -0.00006     0.00001    -0.00170
 PX  O  11   0.01611     0.00030    -0.00306     0.00009    -0.00002     0.00450
 PY  O  11   0.00417     0.00027    -0.00053    -0.00002     0.00002     0.00052
 PZ  O  11   0.00564    -0.00005    -0.00131    -0.00005     0.00001     0.00434
  
  S  C  12  -0.00494     0.00027    -0.00064     0.00010    -0.00001    -0.00035
 PX  C  12   0.00746     0.00024    -0.00121     0.00010    -0.00003     0.00007
 PY  C  12   0.00609     0.00032    -0.00106     0.00008    -0.00002    -0.00009
 PZ  C  12  -0.01485    -0.00060     0.00227    -0.00017     0.00005     0.00016
  
  S  H  13   0.00851    -0.00002    -0.00039     0.00000    -0.00002     0.00057
  
  S  H  14   0.00763    -0.00002     0.00013    -0.00004    -0.00002    -0.00060
  
  S  H  15   0.00609     0.00005    -0.00006    -0.00003    -0.00000     0.00029
  
  S  N  16  -0.00203    -0.00233    -0.00381    -0.00018    -0.00011     0.00134
 PX  N  16   0.00414    -0.00225     0.00070    -0.00035     0.00001    -0.00108
 PY  N  16   0.00466     0.00133     0.00348     0.00011    -0.00000    -0.00167
 PZ  N  16  -0.00083    -0.00474    -0.00227    -0.00128     0.00046     0.00054
  
  S  C  17  -0.00066     0.01995     0.00371    -0.00264     0.00113    -0.00066
 PX  C  17   0.00275     0.01105    -0.00416    -0.00482     0.00190     0.00033
 PY  C  17   0.00222    -0.01947    -0.00011    -0.00389     0.00218    -0.00036
 PZ  C  17  -0.00342    -0.00195    -0.00322     0.00280    -0.00165     0.00125
  
  S  C  18  -0.00013     0.00017    -0.00066     0.01497    -0.00393     0.00020
[...]
 PZ  C  12  -0.00728     0.00007    -0.00641    -0.00038    -0.00399    -0.00003
  
  S  H  13   0.00079    -0.00001    -0.00011     0.00029     0.00034    -0.00004
  
  S  H  14  -0.00087     0.00001    -0.00036     0.00007    -0.00046     0.00002
  
  S  H  15  -0.00003    -0.00003     0.00077     0.00008     0.00079     0.00008
  
  S  N  16  -0.00890    -0.00080    -0.00238    -0.00154     0.79613     0.00566
 PX  N  16   0.00235     0.00018    -0.00058     0.00054     0.09270     0.00064
 PY  N  16   0.00716     0.00038     0.00542     0.00128     0.37370    -0.00668
 PZ  N  16  -0.00471    -0.00088     0.00198    -0.00098    -0.40055     0.00224
  
  S  C  17   0.00651    -0.00052    -0.00912     0.00063     0.00050    -0.00310
 PX  C  17  -0.00798    -0.00277    -0.00222    -0.00081     0.05433     0.00528
 PY  C  17  -0.00069    -0.00045     0.00955     0.00054     0.08765     0.00255
 PZ  C  17  -0.00548     0.00138    -0.01099    -0.00158    -0.14976     0.00380
  
  S  C  18  -0.00088     0.00023     0.00243    -0.00604    -0.00500     0.00476
 PX  C  18   0.00006    -0.00086     0.00096     0.00362    -0.02341    -0.00142
 PY  C  18   0.00109    -0.00092    -0.00035    -0.00513    -0.01886     0.00455
 PZ  C  18   0.00032     0.00115    -0.00460    -0.00104     0.05012     0.00023
  
  S  C  19  -0.00050    -0.00374    -0.00912     0.00003     0.01654     0.00036
 PX  C  19   0.00031     0.00156    -0.03352    -0.00005    -0.03635    -0.00001
 PY  C  19  -0.00050     0.00499     0.00054     0.00005    -0.00429     0.00037
 PZ  C  19  -0.00014    -0.00126     0.00148     0.00009     0.04343     0.00016
  
  S  C  20   0.00055     0.00002    -0.00055     0.00096     0.00083    -0.00203
 PX  C  20  -0.00082     0.00117    -0.00521    -0.00105    -0.01126     0.00248
 PY  C  20  -0.00013     0.00104    -0.00303    -0.00051    -0.00887     0.00074
 PZ  C  20  -0.00020    -0.00237     0.00829    -0.00152     0.01880     0.00022
  
  S  C  21   0.00045     0.00133     0.01533    -0.00011    -0.00243    -0.00029
 PX  C  21  -0.00052    -0.00424    -0.00835    -0.00014    -0.00650     0.00025
 PY  C  21  -0.00006    -0.00226     0.00897    -0.00024    -0.00517     0.00014
 PZ  C  21  -0.00047     0.00456    -0.02303     0.00011     0.01668     0.00049
  
  S  C  22   0.00012    -0.00044    -0.00285    -0.00028    -0.00073     0.00030
 PX  C  22  -0.00009     0.00051    -0.00062     0.00018     0.02017    -0.00050
 PY  C  22  -0.00001     0.00087     0.00328    -0.00048     0.01556     0.00033
 PZ  C  22  -0.00001    -0.00044     0.00185     0.00010    -0.03435     0.00039
  
  S  H  23  -0.00021    -0.00011     0.00140    -0.00004     0.00275     0.00023
  
  S  H  24   0.00010     0.00024     0.00240     0.00022    -0.00014    -0.00029
  
  S  H  25  -0.00028    -0.00003     0.00003     0.00053    -0.00025     0.00019
  
  S  C  26  -0.00009    -0.00008    -0.00087    -0.00199     0.00079     0.01236
 PX  C  26  -0.00028    -0.00004    -0.00069    -0.00910     0.00053    -0.00885
 PY  C  26   0.00031     0.00017     0.00100    -0.02065     0.00007     0.01224
 PZ  C  26   0.00016     0.00000    -0.00004     0.01607     0.00206     0.03617
  
  S  C  27  -0.00174    -0.00012    -0.00043     0.36899    -0.00869    -0.37317
 PX  C  27  -0.00015     0.00005     0.00005    -0.36278     0.00023    -0.10587
 PY  C  27   0.00060     0.00002     0.00010    -0.48486    -0.00032     0.12780
 PZ  C  27   0.00223     0.00005     0.00038     0.27997     0.00988     0.65108
  
  S  H  28   0.00359     0.00012     0.00038     0.01755     0.01770    -0.63703
  
  S  H  29   0.00026     0.00006     0.00022     0.00616     0.00433    -0.00607
  
  S  H  30   0.00027     0.00008     0.00013     0.64562    -0.00023    -0.01611
  
  S  C  31  -0.00013    -0.00005     0.00024    -0.00791    -0.00371    -0.01645
 PX  C  31  -0.00002     0.00001     0.00004    -0.00173    -0.00099    -0.00831
 PY  C  31   0.00004     0.00005    -0.00019     0.00391     0.00163     0.00612
 PZ  C  31   0.00019     0.00012    -0.00058     0.00332     0.00522     0.02382
  
  S  H  32  -0.00004    -0.00000    -0.00014     0.00059     0.00137     0.00010
  
  S  H  33   0.00004    -0.00001     0.00007     0.00445    -0.00030     0.00513
  
  S  H  34  -0.00001     0.00001     0.00006     0.00404    -0.00045    -0.00056
  
  S  H  35   0.00000     0.00020    -0.00022     0.02453     0.00656     0.00303
  
  S  C  36  -0.00001     0.01568    -0.01095     0.00001    -0.00162    -0.00011
 PX  C  36   0.00003    -0.00965    -0.01986     0.00001     0.00094     0.00003
 PY  C  36   0.00005     0.02119    -0.00621     0.00004    -0.00194    -0.00016
 PZ  C  36  -0.00007    -0.00980    -0.00147    -0.00002     0.00049     0.00008
  
  S  C  37  -0.00067    -0.01149     0.40794    -0.00018     0.00042     0.00064
 PX  C  37   0.00062    -0.01308    -0.61815     0.00022    -0.00200    -0.00056
 PY  C  37  -0.00013     0.03057    -0.09630     0.00008    -0.00058     0.00009
 PZ  C  37   0.00002    -0.01646    -0.10615     0.00008     0.00276     0.00018
  
  S  H  38   0.00007    -0.00372    -0.00140     0.00000    -0.00028    -0.00003
  
  S  H  39  -0.00006    -0.00021     0.02679    -0.00004     0.00017     0.00009
  
  S  H  40   0.00000     0.00038    -0.00485     0.00002     0.00067     0.00000
  
  S  C  41  -0.00042     0.37143    -0.01055    -0.00005     0.00241     0.00009
 PX  C  41   0.00024    -0.29699    -0.01847     0.00003    -0.00183    -0.00004
 PY  C  41  -0.00054     0.50469    -0.00332    -0.00007    -0.00210     0.00009
 PZ  C  41   0.00048    -0.31781    -0.00682     0.00009     0.00751    -0.00011
  
  S  H  42   0.00086    -0.00331     0.65222     0.00034    -0.00457    -0.00066
  
  S  H  43   0.00002     0.01001     0.02571    -0.00000     0.00078     0.00003
  
  S  H  44   0.00106     0.64452    -0.00322     0.00014     0.00388    -0.00023
  
  S  H  45   0.00004     0.00832    -0.00271     0.00002    -0.00103    -0.00000




    ROOT NO.   49          50          51          52          53          54

            -8.17836    -6.91514    -6.85289    -6.84139    -6.84108    -6.77094
  
  
  S  C   1   0.01051    -0.00118     0.01100    -0.00241     0.00200    -0.00254
 PX  C   1   0.07390    -0.02518    -0.32992    -0.00577     0.00517    -0.00624
 PY  C   1  -0.07587     0.02988     0.44241     0.00213    -0.00192     0.00237
 PZ  C   1  -0.04578     0.01670     0.25247     0.00146    -0.00128     0.00134
  
  S  C   2   0.00047     0.00533     0.01606     0.00991    -0.00722     0.00920
 PX  C   2  -0.04235    -0.02382    -0.42749     0.00234    -0.00087     0.00117
 PY  C   2   0.09332     0.03344     0.51353     0.00989    -0.00872     0.01012
 PZ  C   2   0.03462     0.01264     0.29653     0.00074     0.00093    -0.00179
  
  S  C   3  -0.00172    -0.00034    -0.00020    -0.00019     0.00026    -0.00039
 PX  C   3  -0.00942     0.03389    -0.01379     0.00443    -0.00400     0.00439
 PY  C   3   0.01110    -0.04301     0.01818    -0.00583     0.00528    -0.00595
 PZ  C   3   0.00433    -0.02479     0.00961    -0.00312     0.00298    -0.00336
  
  S  H   4   0.00044     0.00063    -0.00193     0.00166    -0.00152     0.00181
  
  S  C   5   0.00004     0.00104    -0.00008    -0.00086     0.00068    -0.00101
 PX  C   5  -0.02612    -0.02585     0.08845    -0.00381     0.00305    -0.00397
 PY  C   5   0.03500     0.03524    -0.11499     0.00239    -0.00187     0.00226
 PZ  C   5   0.01910     0.01923    -0.06385     0.00168    -0.00134     0.00167
  
  S  H   6   0.00145     0.00021     0.00064    -0.00042     0.00035    -0.00041
  
  S  C   7   0.00279    -0.00357    -0.00133    -0.00034     0.00054    -0.00029
 PX  C   7   0.01808    -0.03646    -0.01560    -0.00518     0.00488    -0.00560
 PY  C   7  -0.02116     0.04815     0.01903     0.00585    -0.00534     0.00590
 PZ  C   7  -0.00745     0.02137     0.00818     0.00308    -0.00245     0.00309
  
  S  H   8   0.00034    -0.00090    -0.00023     0.00024    -0.00014     0.00025
  
  S  C   9  -0.01338    -0.01487     0.00495    -0.02227     0.01664    -0.02528
 PX  C   9   0.03119     0.24181    -0.13889    -0.00670     0.00533    -0.00903
 PY  C   9  -0.02311    -0.32822     0.18087    -0.03097     0.02371    -0.03297
 PZ  C   9  -0.02557    -0.19973     0.10152    -0.02073     0.01564    -0.02230
  
  S  H  10  -0.00142    -0.00028     0.00016     0.00046    -0.00042     0.00053
  
  S  O  11  -0.05523     0.00172     0.00457    -0.00313     0.00173    -0.00208
 PX  O  11  -0.32405     0.00019    -0.01716     0.00602    -0.00253     0.00283
 PY  O  11   0.88027    -0.00481     0.00503     0.00053     0.00064    -0.00038
 PZ  O  11   0.27932    -0.00013     0.01891    -0.00234     0.00154    -0.00190
  
  S  C  12  -0.00010    -0.00272    -0.01432     0.00387    -0.00228     0.00264
 PX  C  12  -0.02123    -0.00095    -0.00375     0.00400    -0.00251     0.00296
 PY  C  12   0.05016    -0.00366    -0.01992     0.00384    -0.00226     0.00262
 PZ  C  12   0.01650     0.00453     0.01721    -0.00912     0.00522    -0.00646
  
  S  H  13  -0.03927     0.00155     0.01156     0.00052    -0.00038     0.00044
  
  S  H  14  -0.01314     0.00069     0.00292     0.00069    -0.00016     0.00047
  
  S  H  15   0.05085    -0.00135    -0.00596    -0.00049     0.00054    -0.00057
  
  S  N  16   0.00032    -0.04828    -0.00233     0.00910    -0.00766     0.00958
 PX  N  16  -0.00777     0.53034     0.03477    -0.00639     0.00163    -0.01047
 PY  N  16   0.01029    -0.52299    -0.04867     0.00048    -0.00030    -0.00383
 PZ  N  16   0.00407    -0.42880    -0.03053    -0.02902     0.02391    -0.03001
  
  S  C  17   0.00031     0.01304     0.00337    -0.00221     0.00018     0.00196
 PX  C  17  -0.00962     0.09485     0.01159    -0.17313     0.09995    -0.19701
 PY  C  17  -0.00355    -0.03045     0.00100    -0.13157     0.07862    -0.15386
 PZ  C  17   0.01272    -0.14113    -0.02489     0.27634    -0.16213     0.32237
  
  S  C  18  -0.00187     0.02755     0.00633     0.00083    -0.00070     0.00794
 PX  C  18   0.00289    -0.01853    -0.00639    -0.00945     0.02055    -0.33274
 PY  C  18   0.00406    -0.04237    -0.01119    -0.00827     0.01799    -0.28228
 PZ  C  18  -0.00361     0.01826     0.00452     0.01333    -0.03376     0.59645
  
  S  C  19   0.00184    -0.03230    -0.00765     0.00818     0.00069    -0.00240
 PX  C  19   0.00108     0.00856     0.00287    -0.33822     0.04002    -0.02636
 PY  C  19   0.00471    -0.03988    -0.01149    -0.29002     0.03623    -0.02636
 PZ  C  19  -0.00456     0.01977     0.00726     0.57262    -0.06782     0.04767
  
  S  C  20   0.00043    -0.00519    -0.00099     0.00105     0.00008    -0.00003
 PX  C  20   0.00087    -0.00140    -0.00087     0.08847    -0.21091    -0.22019
 PY  C  20   0.00113    -0.00636    -0.00155     0.06905    -0.16534    -0.17277
 PZ  C  20  -0.00293     0.01441     0.00423    -0.16230     0.38439     0.39768
  
  S  C  21  -0.00017     0.00481     0.00180    -0.00040    -0.00205     0.00058
 PX  C  21   0.00111    -0.01282    -0.00443    -0.25652    -0.18159     0.09109
 PY  C  21   0.00080    -0.01053    -0.00234    -0.20549    -0.14504     0.07241
 PZ  C  21  -0.00147     0.01362     0.00291     0.44047     0.31257    -0.15780
  
  S  C  22  -0.00004     0.00030     0.00003    -0.00059    -0.00080     0.00053
 PX  C  22  -0.00240     0.01268     0.00411    -0.01045    -0.34964     0.01600
 PY  C  22  -0.00159     0.00806     0.00268    -0.00838    -0.26651     0.01200
 PZ  C  22   0.00424    -0.02234    -0.00725     0.01965     0.61741    -0.02910
  
  S  H  23   0.00051    -0.00490    -0.00175    -0.00050     0.00080    -0.00064
  
  S  H  24   0.00006    -0.00025     0.00011     0.00050     0.00013    -0.00041
  
  S  H  25  -0.00042     0.00435     0.00135    -0.00018    -0.00014     0.00066
  
  S  C  26  -0.00037     0.00392     0.00076    -0.00037    -0.00085     0.00745
 PX  C  26   0.00018    -0.00071    -0.00063     0.00038     0.00290    -0.02304
 PY  C  26   0.00001    -0.00186    -0.00003     0.00049     0.00183    -0.00924
 PZ  C  26  -0.00004     0.00045    -0.00028    -0.00097    -0.00635     0.04566
  
  S  C  27  -0.00045     0.00999    -0.00016     0.00007    -0.00005    -0.00157
 PX  C  27   0.00050    -0.00830     0.00050    -0.00008     0.00003    -0.00116
 PY  C  27   0.00034     0.00193     0.00095     0.00007    -0.00007     0.00042
 PZ  C  27   0.00026    -0.00576    -0.00276     0.00007     0.00005    -0.00242
  
  S  H  28   0.00016    -0.01678    -0.00054     0.00001    -0.00024     0.00016
  
  S  H  29   0.00042    -0.00871    -0.00150    -0.00011     0.00009    -0.00015
  
  S  H  30   0.00057    -0.00793     0.00322     0.00002     0.00011     0.00087
  
  S  C  31   0.00028    -0.00191    -0.00050     0.00063    -0.00004    -0.01569
 PX  C  31   0.00019    -0.00085    -0.00020     0.00085    -0.00146    -0.00056
 PY  C  31  -0.00010     0.00099     0.00031     0.00088    -0.00110     0.00088
 PZ  C  31  -0.00056     0.00258     0.00062     0.00146    -0.00430     0.01710
  
  S  H  32  -0.00013     0.00071     0.00021    -0.00094     0.00136     0.00605
  
  S  H  33   0.00000     0.00017     0.00006    -0.00054     0.00155     0.00158
  
  S  H  34   0.00022    -0.00013     0.00004     0.00032     0.00012     0.00190
  
  S  H  35  -0.00068     0.00399     0.00125     0.00163    -0.00330     0.01455
  
  S  C  36   0.00148     0.00032    -0.00089    -0.01033     0.00158    -0.00101
 PX  C  36  -0.00059     0.00060     0.00039     0.00690    -0.00143     0.00087
 PY  C  36   0.00005     0.00078    -0.00165    -0.00761     0.00327    -0.00250
 PZ  C  36   0.00126    -0.00042     0.00083     0.00656    -0.00273     0.00144
  
  S  C  37   0.00442    -0.00883     0.00708    -0.00549     0.00173    -0.00054
 PX  C  37  -0.00427     0.00842    -0.01019    -0.02093     0.00186     0.00179
 PY  C  37  -0.00029     0.00239    -0.00253    -0.02512     0.00491    -0.00044
 PZ  C  37  -0.00265     0.00149    -0.00167     0.04715    -0.00721     0.00072
  
  S  H  38  -0.00233    -0.00003    -0.00030     0.00245     0.00027    -0.00002
  
  S  H  39  -0.00004    -0.00166     0.00064    -0.00072     0.00002    -0.00003
  
  S  H  40  -0.00052     0.00099    -0.00018     0.00399     0.00045    -0.00013
  
  S  C  41  -0.00134    -0.00120    -0.00007     0.01805    -0.00359     0.00257
 PX  C  41   0.00094     0.00000    -0.00014    -0.00985     0.00479    -0.00323
 PY  C  41   0.00026    -0.00292    -0.00039    -0.00822     0.00128     0.00036
 PZ  C  41  -0.00226     0.00542     0.00028     0.01761    -0.00564     0.00380
  
  S  H  42  -0.00680     0.01173    -0.01661    -0.00662     0.00159    -0.00104
  
  S  H  43   0.00049     0.00004     0.00093    -0.00287    -0.00111     0.00050
  
  S  H  44  -0.00033     0.00776     0.00017    -0.00061    -0.00052    -0.00017
  
  S  H  45   0.00008     0.00014    -0.00038    -0.00666     0.00121    -0.00116




    ROOT NO.   55          56

            -6.23008    -6.18329
  
  
  S  C   1  -0.00032     0.00129
 PX  C   1   0.08743    -0.18823
 PY  C   1  -0.11254     0.24242
 PZ  C   1  -0.06476     0.13870
  
  S  C   2   0.00051     0.00101
 PX  C   2  -0.04743     0.07837
 PY  C   2   0.06298    -0.10007
 PZ  C   2   0.03425    -0.05567
  
  S  C   3  -0.00026     0.00368
 PX  C   3   0.03091    -0.44437
 PY  C   3  -0.03927     0.56341
 PZ  C   3  -0.02266     0.32132
  
  S  H   4   0.00053    -0.00087
  
  S  C   5  -0.00091    -0.00087
 PX  C   5  -0.27007    -0.25645
 PY  C   5   0.35039     0.33391
 PZ  C   5   0.19244     0.18472
  
  S  H   6   0.00027    -0.00031
  
  S  C   7  -0.00618     0.00132
 PX  C   7  -0.43420     0.03789
 PY  C   7   0.57991    -0.04872
 PZ  C   7   0.29942    -0.02361
  
  S  H   8  -0.00063     0.00050
  
  S  C   9   0.00296    -0.00434
 PX  C   9  -0.18008     0.09291
 PY  C   9   0.24229    -0.12332
 PZ  C   9   0.13412    -0.06850
  
  S  H  10  -0.00035     0.00030
  
  S  O  11   0.00123    -0.00261
 PX  O  11   0.00369    -0.00026
 PY  O  11  -0.00953     0.00955
 PZ  O  11  -0.00213    -0.00066
  
  S  C  12  -0.00182     0.00416
 PX  C  12  -0.00275     0.00484
 PY  C  12  -0.00132     0.00477
 PZ  C  12   0.00470    -0.00897
  
  S  H  13   0.00155    -0.00251
  
  S  H  14   0.00070    -0.00086
  
  S  H  15  -0.00202     0.00301
  
  S  N  16  -0.00363     0.00274
 PX  N  16   0.04095    -0.03064
 PY  N  16  -0.05748     0.04134
 PZ  N  16  -0.03824     0.02669
  
  S  C  17   0.00522    -0.00320
 PX  C  17   0.01293    -0.00960
 PY  C  17  -0.00019    -0.00141
 PZ  C  17  -0.03003     0.02169
  
  S  C  18   0.00750    -0.00572
 PX  C  18  -0.00756     0.00622
 PY  C  18  -0.01324     0.01062
 PZ  C  18   0.00522    -0.00448
  
  S  C  19  -0.00948     0.00706
 PX  C  19   0.00394    -0.00287
 PY  C  19  -0.01356     0.01082
 PZ  C  19   0.00831    -0.00707
  
  S  C  20  -0.00113     0.00090
 PX  C  20  -0.00099     0.00082
 PY  C  20  -0.00177     0.00139
 PZ  C  20   0.00471    -0.00395
  
  S  C  21   0.00204    -0.00158
 PX  C  21  -0.00516     0.00430
 PY  C  21  -0.00294     0.00231
 PZ  C  21   0.00349    -0.00297
  
  S  C  22   0.00012    -0.00007
 PX  C  22   0.00478    -0.00415
 PY  C  22   0.00306    -0.00266
 PZ  C  22  -0.00846     0.00731
  
  S  H  23  -0.00216     0.00178
  
  S  H  24   0.00010    -0.00009
  
  S  H  25   0.00161    -0.00133
  
  S  C  26   0.00107    -0.00070
 PX  C  26  -0.00094     0.00061
 PY  C  26  -0.00007    -0.00004
 PZ  C  26  -0.00023     0.00022
  
  S  C  27  -0.00061    -0.00035
 PX  C  27  -0.00007    -0.00003
 PY  C  27   0.00096    -0.00019
 PZ  C  27  -0.00237     0.00234
  
  S  H  28   0.00179    -0.00006
  
  S  H  29  -0.00178     0.00154
  
  S  H  30   0.00255    -0.00148
  
  S  C  31  -0.00063     0.00048
 PX  C  31  -0.00029     0.00022
 PY  C  31   0.00037    -0.00030
 PZ  C  31   0.00083    -0.00063
  
  S  H  32   0.00024    -0.00021
  
  S  H  33   0.00010    -0.00006
  
  S  H  34  -0.00002    -0.00001
  
  S  H  35   0.00153    -0.00135
  
  S  C  36  -0.00115     0.00092
 PX  C  36   0.00086    -0.00067
 PY  C  36  -0.00170     0.00141
 PZ  C  36   0.00089    -0.00071
  
  S  C  37   0.00386    -0.00300
 PX  C  37  -0.00659     0.00512
 PY  C  37  -0.00192     0.00147
 PZ  C  37  -0.00065     0.00056
  
  S  H  38  -0.00029     0.00023
  
  S  H  39   0.00048    -0.00039
  
  S  H  40   0.00007    -0.00006
  
  S  C  41   0.00036    -0.00009
 PX  C  41   0.00005    -0.00005
 PY  C  41  -0.00022     0.00036
 PZ  C  41   0.00062    -0.00063
  
  S  H  42  -0.00588     0.00482
  
  S  H  43   0.00062    -0.00060
  
  S  H  44  -0.00045    -0.00010
  
  S  H  45  -0.00044     0.00030

          BONDING CONTRIBUTION OF EACH M.O.

  0.0322  1.9753  1.8449  1.9800  1.8988  1.9583  1.9947  1.9967  1.9962  1.9967
  1.9773  1.9988  1.9674  1.9484  1.9953  2.0047  1.9937  1.9617  1.9584  1.9712
  1.9702  1.9866  1.9735  1.9860  1.9759  1.9712  1.9801  1.9676  1.9636  1.9712
  1.9666  1.9631  1.9801  1.9926  1.9780  1.9683  1.9517  1.9873  1.9564  1.9616
  1.9759  1.9867  1.9595  1.9469  1.9610  1.9451  0.3392  1.9331  0.2223  1.3149
  1.8253  1.9572  1.8335  1.9391  1.7412  1.6983 -2.0961 -2.0365 -2.2115 -2.1593
 -1.9311 -2.0465 -2.1303 -1.9493 -1.9649 -1.9533 -1.9358 -1.9521 -1.9841 -2.0057
 -2.0257 -2.0212 -1.9927 -1.9968 -1.9960 -1.9694 -1.9634 -1.9965 -1.9858 -1.9925
 -1.9800 -1.9662 -1.9446 -1.9718 -1.9517 -1.9846 -1.9512 -1.9830 -2.0073 -1.9850
 -2.0051 -1.9928 -1.9894 -1.9832 -1.9802 -1.9817 -1.9850 -2.0110 -1.9724 -1.9480
 -1.9590 -1.9841 -1.9852 -1.9292 -1.9747 -1.9679 -1.9156 -1.8953

 **********************
 *                    *
 * JOB ENDED NORMALLY *
 *                    *
 **********************



 TOTAL JOB TIME:             4.12 SECONDS

 == MOPAC DONE ==
