 *******************************************************************************
 ** Site#: 14762        For non-commercial use only    Version 17.165L 64BITS **
 *******************************************************************************
 ** Cite this program as: MOPAC2016, Version: 17.165L, James J. P. Stewart,   **
 ** Stewart Computational Chemistry, web: HTTP://OpenMOPAC.net. Days left: 226**
 *******************************************************************************
 **                                                                           **
 **                                MOPAC2016                                  **
 **                                                                           **
 *******************************************************************************

                              PM6 CALCULATION RESULTS


 *******************************************************************************
 *  CALCULATION DONE:                                Tue Oct 31 16:34:40 2017  *
 *  PM6        - The PM6 Hamiltonian to be used
 *
 *
 *
 *                 CHARGE ON SYSTEM =    -1
 *
 *
 *
 *  NOSYM      - POINT-GROUP SYMMETRY SET TO C1
 *  T=         - A TIME OF     12.0 MINUTES REQUESTED
 *  DUMP=N     - RESTART FILE WRITTEN EVERY  7200.000 SECONDS
 *  GNORM=     - EXIT WHEN GRADIENT NORM DROPS BELOW   5.00    
 *  AUX        - OUTPUT AUXILIARY INFORMATION
 *  LOCALIZE   - LOCALIZED ORBITALS TO BE PRINTED
 *******************************************************************************
 PM6 NOSYM T=12M GNORM=5.000000 CHARGE=-1 AUX LOCALIZE
   MOPAC run
   ready to go?
   ATOM   CHEMICAL          X               Y               Z
  NUMBER   SYMBOL      (ANGSTROMS)     (ANGSTROMS)     (ANGSTROMS)
 
     1       C          0.08656000  *  -3.81898000  *  -2.97442000  *
     2       C          0.85296000  *  -2.70557000  *  -2.64146000  *
     3       C         -0.01306000  *  -4.92066000  *  -2.10346000  *
     4       H         -0.44184000  *  -3.84606000  *  -3.92318000  *
     5       C          0.68978000  *  -4.87224000  *  -0.89224000  *
     6       H         -0.61760000  *  -5.78141000  *  -2.37494000  *
     7       C          1.45606000  *  -3.75860000  *  -0.55417000  *
     8       H          0.63952000  *  -5.71210000  *  -0.20081000  *
     9       C          1.57748000  *  -2.60490000  *  -1.39441000  *
    10       H          2.00563000  *  -3.72273000  *   0.38175000  *
    11       O          1.00813000  *  -1.59824000  *  -3.50734000  *
    12       C          0.34505000  *  -1.62919000  *  -4.78208000  *
    13       H          0.61018000  *  -2.52935000  *  -5.35575000  *
    14       H          0.68913000  *  -0.73891000  *  -5.31164000  *
    15       H         -0.74967000  *  -1.58891000  *  -4.67991000  *
    16       N          2.40940000  *  -1.60595000  *  -1.02087000  *
    17       C          3.57346000  *  -1.63902000  *  -0.28582000  *
    18       C          4.00370000  *  -0.43298000  *   0.37596000  *
    19       C          4.47967000  *  -2.75952000  *  -0.26203000  *
    20       C          5.23674000  *  -0.39360000  *   1.03565000  *
    21       C          5.70393000  *  -2.66202000  *   0.41032000  *
    22       C          6.09852000  *  -1.49589000  *   1.07218000  *
    23       H          6.37244000  *  -3.52214000  *   0.40418000  *
    24       H          7.05110000  *  -1.44337000  *   1.59382000  *
    25       H          5.52505000  *   0.52873000  *   1.54015000  *
    26       C          3.13924000  *   0.82941000  *   0.39263000  *
    27       C          1.80372000  *   0.63575000  *  -0.36478000  *
    28       H          1.99001000  *   0.37985000  *  -1.41602000  *
    29       H          1.20184000  *   1.55619000  *  -0.33541000  *
    30       H          1.24802000  *  -0.18184000  *   0.10288000  *
    31       C          2.89183000  *   1.37514000  *   1.81861000  *
    32       H          2.34278000  *   2.32783000  *   1.77570000  *
    33       H          3.84267000  *   1.54497000  *   2.33863000  *
    34       H          2.31007000  *   0.65565000  *   2.39870000  *
    35       H          3.71223000  *   1.60055000  *  -0.15001000  *
    36       C          3.95458000  *  -5.25820000  *  -0.10976000  *
    37       C          4.17068000  *  -4.04134000  *  -1.03749000  *
    38       H          3.16299000  *  -5.03994000  *   0.61310000  *
    39       H          4.86805000  *  -5.50637000  *   0.44830000  *
    40       H          3.66627000  *  -6.14661000  *  -0.68944000  *
    41       C          5.27094000  *  -4.34035000  *  -2.08497000  *
    42       H          3.24041000  *  -3.88725000  *  -1.58854000  *
    43       H          6.24100000  *  -4.51482000  *  -1.60031000  *
    44       H          5.38475000  *  -3.49381000  *  -2.77149000  *
    45       H          5.02140000  *  -5.23348000  *  -2.67633000  *
 


          CARTESIAN COORDINATES 

    NO.       ATOM         X         Y         Z

     1         C        0.0866   -3.8190   -2.9744
     2         C        0.8530   -2.7056   -2.6415
     3         C       -0.0131   -4.9207   -2.1035
     4         H       -0.4418   -3.8461   -3.9232
     5         C        0.6898   -4.8722   -0.8922
     6         H       -0.6176   -5.7814   -2.3749
     7         C        1.4561   -3.7586   -0.5542
     8         H        0.6395   -5.7121   -0.2008
     9         C        1.5775   -2.6049   -1.3944
    10         H        2.0056   -3.7227    0.3818
    11         O        1.0081   -1.5982   -3.5073
    12         C        0.3451   -1.6292   -4.7821
    13         H        0.6102   -2.5293   -5.3558
    14         H        0.6891   -0.7389   -5.3116
    15         H       -0.7497   -1.5889   -4.6799
    16         N        2.4094   -1.6059   -1.0209
    17         C        3.5735   -1.6390   -0.2858
    18         C        4.0037   -0.4330    0.3760
    19         C        4.4797   -2.7595   -0.2620
    20         C        5.2367   -0.3936    1.0356
    21         C        5.7039   -2.6620    0.4103
    22         C        6.0985   -1.4959    1.0722
    23         H        6.3724   -3.5221    0.4042
    24         H        7.0511   -1.4434    1.5938
    25         H        5.5251    0.5287    1.5402
    26         C        3.1392    0.8294    0.3926
    27         C        1.8037    0.6358   -0.3648
    28         H        1.9900    0.3799   -1.4160
    29         H        1.2018    1.5562   -0.3354
    30         H        1.2480   -0.1818    0.1029
    31         C        2.8918    1.3751    1.8186
    32         H        2.3428    2.3278    1.7757
    33         H        3.8427    1.5450    2.3386
    34         H        2.3101    0.6557    2.3987
    35         H        3.7122    1.6006   -0.1500
    36         C        3.9546   -5.2582   -0.1098
    37         C        4.1707   -4.0413   -1.0375
    38         H        3.1630   -5.0399    0.6131
    39         H        4.8681   -5.5064    0.4483
    40         H        3.6663   -6.1466   -0.6894
    41         C        5.2709   -4.3403   -2.0850
    42         H        3.2404   -3.8872   -1.5885
    43         H        6.2410   -4.5148   -1.6003
    44         H        5.3848   -3.4938   -2.7715
    45         H        5.0214   -5.2335   -2.6763

 General Reference for PM6:
 "Optimization of Parameters for Semiempirical Methods V: Modification of NDDO Approximations
 and Application to 70 Elements", J. J. P. Stewart, J. Mol. Mod., 13, 1173-1213 (2007)
 URL: http://www.springerlink.com/content/ar33482301010477/fulltext.pdf

           Empirical Formula: C19 H24 N O  =    45 atoms



      MOLECULAR POINT GROUP   :   C1  


      RHF CALCULATION, NO. OF DOUBLY OCCUPIED LEVELS = 56


          Geometry optimization using L-BFGS
 CYCLE:     1 TIME:   0.109 TIME LEFT: 12.00M  GRAD.:    83.582 HEAT: -15.09528
 CYCLE:     2 TIME:   0.059 TIME LEFT: 12.00M  GRAD.:    82.747 HEAT: -15.16480
 CYCLE:     3 TIME:   0.059 TIME LEFT: 12.00M  GRAD.:    43.974 HEAT: -20.22983
 CYCLE:     4 TIME:   0.059 TIME LEFT: 11.99M  GRAD.:    83.012 HEAT: -15.16743
 CYCLE:     5 TIME:   0.059 TIME LEFT: 11.99M  GRAD.:    44.328 HEAT: -20.22543
 CYCLE:     6 TIME:   0.055 TIME LEFT: 11.99M  GRAD.:    45.442 HEAT: -21.66939
 CYCLE:     7 TIME:   0.059 TIME LEFT: 11.99M  GRAD.:    35.869 HEAT: -23.91926
 CYCLE:     8 TIME:   0.062 TIME LEFT: 11.99M  GRAD.:    64.121 HEAT: -25.11567
 CYCLE:     9 TIME:   0.055 TIME LEFT: 11.99M  GRAD.:    27.001 HEAT: -26.29262
 CYCLE:    10 TIME:   0.059 TIME LEFT: 11.99M  GRAD.:    22.217 HEAT: -26.73780
 CYCLE:    11 TIME:   0.070 TIME LEFT: 11.99M  GRAD.:    24.999 HEAT: -27.28500
 CYCLE:    12 TIME:   0.066 TIME LEFT: 11.99M  GRAD.:    43.527 HEAT: -27.85492
 CYCLE:    13 TIME:   0.051 TIME LEFT: 11.99M  GRAD.:    21.874 HEAT: -28.46374
 CYCLE:    14 TIME:   0.047 TIME LEFT: 11.98M  GRAD.:    17.317 HEAT: -28.81776
 CYCLE:    15 TIME:   0.043 TIME LEFT: 11.98M  GRAD.:    19.590 HEAT: -29.20482
 CYCLE:    16 TIME:   0.047 TIME LEFT: 11.98M  GRAD.:    30.254 HEAT: -29.56887
 CYCLE:    17 TIME:   0.047 TIME LEFT: 11.98M  GRAD.:    15.039 HEAT: -29.89684
 CYCLE:    18 TIME:   0.047 TIME LEFT: 11.98M  GRAD.:    10.876 HEAT: -30.06415
 CYCLE:    19 TIME:   0.043 TIME LEFT: 11.98M  GRAD.:    12.431 HEAT: -30.20393
 CYCLE:    20 TIME:   0.066 TIME LEFT: 11.98M  GRAD.:    15.764 HEAT: -30.36429
 CYCLE:    21 TIME:   0.070 TIME LEFT: 11.98M  GRAD.:    11.487 HEAT: -30.52632
 CYCLE:    22 TIME:   0.066 TIME LEFT: 11.98M  GRAD.:    11.608 HEAT: -30.68358
 CYCLE:    23 TIME:   0.074 TIME LEFT: 11.98M  GRAD.:    12.736 HEAT: -30.81117
 CYCLE:    24 TIME:   0.066 TIME LEFT: 11.98M  GRAD.:    10.397 HEAT: -30.92574
 CYCLE:    25 TIME:   0.070 TIME LEFT: 11.97M  GRAD.:     9.124 HEAT: -31.03661
 CYCLE:    26 TIME:   0.062 TIME LEFT: 11.97M  GRAD.:     8.336 HEAT: -31.12445
 CYCLE:    27 TIME:   0.066 TIME LEFT: 11.97M  GRAD.:    12.059 HEAT: -31.19721
 CYCLE:    28 TIME:   0.062 TIME LEFT: 11.97M  GRAD.:     7.458 HEAT: -31.25272
 CYCLE:    29 TIME:   0.070 TIME LEFT: 11.97M  GRAD.:     6.343 HEAT: -31.28716
 CYCLE:    30 TIME:   0.070 TIME LEFT: 11.97M  GRAD.:     7.249 HEAT: -31.35089
 CYCLE:    31 TIME:   0.066 TIME LEFT: 11.97M  GRAD.:    19.112 HEAT: -31.37557
 CYCLE:    32 TIME:   0.066 TIME LEFT: 11.97M  GRAD.:     7.679 HEAT: -31.44516
 CYCLE:    33 TIME:   0.070 TIME LEFT: 11.96M  GRAD.:     5.232 HEAT: -31.47930
 CYCLE:    34 TIME:   0.070 TIME LEFT: 11.96M  GRAD.:     6.805 HEAT: -31.51127
 CYCLE:    35 TIME:   0.066 TIME LEFT: 11.96M  GRAD.:     8.396 HEAT: -31.57302
 CYCLE:    36 TIME:   0.066 TIME LEFT: 11.96M  GRAD.:    15.122 HEAT: -31.63495
 CYCLE:    37 TIME:   0.070 TIME LEFT: 11.96M  GRAD.:     7.497 HEAT: -31.72866
 CYCLE:    38 TIME:   0.062 TIME LEFT: 11.96M  GRAD.:     5.678 HEAT: -31.77782
 CYCLE:    39 TIME:   0.070 TIME LEFT: 11.96M  GRAD.:     8.884 HEAT: -31.84881
 CYCLE:    40 TIME:   0.066 TIME LEFT: 11.96M  GRAD.:    12.035 HEAT: -31.90467
 CYCLE:    41 TIME:   0.047 TIME LEFT: 11.96M  GRAD.:     8.495 HEAT: -31.97880
 CYCLE:    42 TIME:   0.047 TIME LEFT: 11.96M  GRAD.:     8.887 HEAT: -32.07558
 CYCLE:    43 TIME:   0.043 TIME LEFT: 11.95M  GRAD.:    13.484 HEAT: -32.15419
 CYCLE:    44 TIME:   0.047 TIME LEFT: 11.95M  GRAD.:    11.789 HEAT: -32.23664
 CYCLE:    45 TIME:   0.047 TIME LEFT: 11.95M  GRAD.:    10.290 HEAT: -32.40327
 CYCLE:    46 TIME:   0.047 TIME LEFT: 11.95M  GRAD.:    16.366 HEAT: -32.48798
 CYCLE:    47 TIME:   0.047 TIME LEFT: 11.95M  GRAD.:    14.679 HEAT: -32.56370
 CYCLE:    48 TIME:   0.047 TIME LEFT: 11.95M  GRAD.:     7.238 HEAT: -32.63854
 CYCLE:    49 TIME:   0.047 TIME LEFT: 11.95M  GRAD.:     5.415 HEAT: -32.68192
 CYCLE:    50 TIME:   0.047 TIME LEFT: 11.95M  GRAD.:     6.178 HEAT: -32.72949
 CYCLE:    51 TIME:   0.047 TIME LEFT: 11.95M  GRAD.:    17.653 HEAT: -32.73624
 CYCLE:    52 TIME:   0.047 TIME LEFT: 11.95M  GRAD.:     4.783 HEAT: -32.81744

 -------------------------------------------------------------------------------
 PM6 NOSYM T=12M GNORM=5.000000 CHARGE=-1 AUX LOCALIZE
   MOPAC run
   ready to go?


     HERBERTS TEST WAS SATISFIED IN BFGS                      
     SCF FIELD WAS ACHIEVED                                   


                              PM6 CALCULATION
                                                       MOPAC2016 (Version: 17.165L)
                                                       Tue Oct 31 16:34:43 2017
                                                       No. of days remaining = 226




          FINAL HEAT OF FORMATION =        -32.81767 KCAL/MOL =    -137.30912 KJ/MOL


          TOTAL ENERGY            =      -3124.76572 EV
          ELECTRONIC ENERGY       =     -25323.60387 EV  POINT GROUP:     C1  
          CORE-CORE REPULSION     =      22198.83815 EV
          COSMO AREA              =        320.93 SQUARE ANGSTROMS
          COSMO VOLUME            =        377.77 CUBIC ANGSTROMS

          GRADIENT NORM           =          4.78252
          IONIZATION POTENTIAL    =          3.123859 EV
          HOMO LUMO ENERGIES (EV) =         -3.124  4.163
          NO. OF FILLED LEVELS    =         56
          MOLECULAR WEIGHT        =        282.4047

          MOLECULAR DIMENSIONS (Angstroms)

            Atom       Atom       Distance
            H    24    H     6     9.86744
            H    45    H    32     8.95119
            H     8    H    14     6.99374


          SCF CALCULATIONS        =         53
 
          WALL-CLOCK TIME         =          3.195 SECONDS
          COMPUTATION TIME        =          3.099 SECONDS



       FINAL  POINT  AND  DERIVATIVES

   PARAMETER     ATOM    TYPE            VALUE       GRADIENT
      1          1  C    CARTESIAN X    -0.144346     0.124734  KCAL/ANGSTROM
      2          1  C    CARTESIAN Y    -3.684422    -0.355162  KCAL/ANGSTROM
      3          1  C    CARTESIAN Z    -2.913514     0.011277  KCAL/ANGSTROM
      4          2  C    CARTESIAN X     0.832173     0.554873  KCAL/ANGSTROM
      5          2  C    CARTESIAN Y    -2.745860     0.251050  KCAL/ANGSTROM
      6          2  C    CARTESIAN Z    -2.672373    -0.164307  KCAL/ANGSTROM
      7          3  C    CARTESIAN X    -0.451493    -0.283117  KCAL/ANGSTROM
      8          3  C    CARTESIAN Y    -4.655376     0.194224  KCAL/ANGSTROM
      9          3  C    CARTESIAN Z    -1.927773    -0.314721  KCAL/ANGSTROM
     10          4  H    CARTESIAN X    -0.687987     0.419560  KCAL/ANGSTROM
     11          4  H    CARTESIAN Y    -3.706033    -0.035281  KCAL/ANGSTROM
     12          4  H    CARTESIAN Z    -3.850979    -1.241837  KCAL/ANGSTROM
     13          5  C    CARTESIAN X     0.250494     0.064477  KCAL/ANGSTROM
     14          5  C    CARTESIAN Y    -4.648560     0.111787  KCAL/ANGSTROM
     15          5  C    CARTESIAN Z    -0.731310     0.228769  KCAL/ANGSTROM
     16          6  H    CARTESIAN X    -1.224909    -0.129241  KCAL/ANGSTROM
     17          6  H    CARTESIAN Y    -5.380660     0.005730  KCAL/ANGSTROM
     18          6  H    CARTESIAN Z    -2.123815    -0.257392  KCAL/ANGSTROM
     19          7  C    CARTESIAN X     1.271587    -0.075848  KCAL/ANGSTROM
     20          7  C    CARTESIAN Y    -3.726482    -0.162457  KCAL/ANGSTROM
     21          7  C    CARTESIAN Z    -0.488055    -0.003794  KCAL/ANGSTROM
     22          8  H    CARTESIAN X     0.010591    -0.365984  KCAL/ANGSTROM
     23          8  H    CARTESIAN Y    -5.381190    -0.510354  KCAL/ANGSTROM
     24          8  H    CARTESIAN Z     0.037212     0.260984  KCAL/ANGSTROM
     25          9  C    CARTESIAN X     1.636596    -1.027904  KCAL/ANGSTROM
     26          9  C    CARTESIAN Y    -2.738130    -1.314265  KCAL/ANGSTROM
     27          9  C    CARTESIAN Z    -1.445988    -0.442526  KCAL/ANGSTROM
     28         10  H    CARTESIAN X     1.816117     0.090140  KCAL/ANGSTROM
     29         10  H    CARTESIAN Y    -3.754539    -0.462161  KCAL/ANGSTROM
     30         10  H    CARTESIAN Z     0.447437     0.163095  KCAL/ANGSTROM
     31         11  O    CARTESIAN X     1.164088    -0.534792  KCAL/ANGSTROM
     32         11  O    CARTESIAN Y    -1.716437    -0.403470  KCAL/ANGSTROM
     33         11  O    CARTESIAN Z    -3.555745    -0.091211  KCAL/ANGSTROM
     34         12  C    CARTESIAN X     0.401136     0.066179  KCAL/ANGSTROM
     35         12  C    CARTESIAN Y    -1.636170     0.325883  KCAL/ANGSTROM
     36         12  C    CARTESIAN Z    -4.775451     0.125672  KCAL/ANGSTROM
     37         13  H    CARTESIAN X     0.701948     0.175963  KCAL/ANGSTROM
     38         13  H    CARTESIAN Y    -2.439286     0.214439  KCAL/ANGSTROM
     39         13  H    CARTESIAN Z    -5.454178    -0.467990  KCAL/ANGSTROM
     40         14  H    CARTESIAN X     0.697612    -0.513758  KCAL/ANGSTROM
     41         14  H    CARTESIAN Y    -0.658893    -0.235928  KCAL/ANGSTROM
     42         14  H    CARTESIAN Z    -5.169230    -0.005241  KCAL/ANGSTROM
     43         15  H    CARTESIAN X    -0.675124    -0.633276  KCAL/ANGSTROM
     44         15  H    CARTESIAN Y    -1.665670    -0.552316  KCAL/ANGSTROM
     45         15  H    CARTESIAN Z    -4.579649    -0.152551  KCAL/ANGSTROM
     46         16  N    CARTESIAN X     2.574976     0.533932  KCAL/ANGSTROM
     47         16  N    CARTESIAN Y    -1.781645     0.499337  KCAL/ANGSTROM
     48         16  N    CARTESIAN Z    -1.302043     0.546919  KCAL/ANGSTROM
     49         17  C    CARTESIAN X     3.637442     0.011299  KCAL/ANGSTROM
     50         17  C    CARTESIAN Y    -1.748671    -0.143014  KCAL/ANGSTROM
     51         17  C    CARTESIAN Z    -0.418493     0.302121  KCAL/ANGSTROM
     52         18  C    CARTESIAN X     3.928689     0.133365  KCAL/ANGSTROM
     53         18  C    CARTESIAN Y    -0.527389     0.980823  KCAL/ANGSTROM
     54         18  C    CARTESIAN Z     0.284038    -0.213804  KCAL/ANGSTROM
     55         19  C    CARTESIAN X     4.596817    -0.373899  KCAL/ANGSTROM
     56         19  C    CARTESIAN Y    -2.819237    -0.395767  KCAL/ANGSTROM
     57         19  C    CARTESIAN Z    -0.326950     0.202186  KCAL/ANGSTROM
     58         20  C    CARTESIAN X     5.135570     0.257534  KCAL/ANGSTROM
     59         20  C    CARTESIAN Y    -0.420231    -0.631398  KCAL/ANGSTROM
     60         20  C    CARTESIAN Z     0.984091     0.043308  KCAL/ANGSTROM
     61         21  C    CARTESIAN X     5.753072     0.594692  KCAL/ANGSTROM
     62         21  C    CARTESIAN Y    -2.674319    -1.036656  KCAL/ANGSTROM
     63         21  C    CARTESIAN Z     0.437538    -0.221478  KCAL/ANGSTROM
     64         22  C    CARTESIAN X     6.043699     0.225862  KCAL/ANGSTROM
     65         22  C    CARTESIAN Y    -1.474482     0.707121  KCAL/ANGSTROM
     66         22  C    CARTESIAN Z     1.088311     0.189015  KCAL/ANGSTROM
     67         23  H    CARTESIAN X     6.451767     0.176944  KCAL/ANGSTROM
     68         23  H    CARTESIAN Y    -3.506281    -0.841789  KCAL/ANGSTROM
     69         23  H    CARTESIAN Z     0.516141     0.105685  KCAL/ANGSTROM
     70         24  H    CARTESIAN X     6.958741     0.005197  KCAL/ANGSTROM
     71         24  H    CARTESIAN Y    -1.361564    -0.187336  KCAL/ANGSTROM
     72         24  H    CARTESIAN Z     1.649931    -0.691095  KCAL/ANGSTROM
     73         25  H    CARTESIAN X     5.383255     0.211225  KCAL/ANGSTROM
     74         25  H    CARTESIAN Y     0.520589     0.250224  KCAL/ANGSTROM
     75         25  H    CARTESIAN Z     1.476629    -0.307024  KCAL/ANGSTROM
     76         26  C    CARTESIAN X     3.068078     0.186583  KCAL/ANGSTROM
     77         26  C    CARTESIAN Y     0.731728    -0.060013  KCAL/ANGSTROM
     78         26  C    CARTESIAN Z     0.312929    -0.057658  KCAL/ANGSTROM
     79         27  C    CARTESIAN X     1.711871    -0.250617  KCAL/ANGSTROM
     80         27  C    CARTESIAN Y     0.672800    -0.081182  KCAL/ANGSTROM
     81         27  C    CARTESIAN Z    -0.390035     0.231154  KCAL/ANGSTROM
     82         28  H    CARTESIAN X     1.830346    -0.062095  KCAL/ANGSTROM
     83         28  H    CARTESIAN Y     0.369156     0.074635  KCAL/ANGSTROM
     84         28  H    CARTESIAN Z    -1.444964     0.339276  KCAL/ANGSTROM
     85         29  H    CARTESIAN X     1.204775     0.439229  KCAL/ANGSTROM
     86         29  H    CARTESIAN Y     1.637451     0.399987  KCAL/ANGSTROM
     87         29  H    CARTESIAN Z    -0.366900    -0.239097  KCAL/ANGSTROM
     88         30  H    CARTESIAN X     1.057496    -0.431611  KCAL/ANGSTROM
     89         30  H    CARTESIAN Y    -0.086809    -0.152769  KCAL/ANGSTROM
     90         30  H    CARTESIAN Z     0.053914     0.246106  KCAL/ANGSTROM
     91         31  C    CARTESIAN X     2.832435    -0.252576  KCAL/ANGSTROM
     92         31  C    CARTESIAN Y     1.193725     0.648713  KCAL/ANGSTROM
     93         31  C    CARTESIAN Z     1.773444     0.092795  KCAL/ANGSTROM
     94         32  H    CARTESIAN X     2.214525    -0.019825  KCAL/ANGSTROM
     95         32  H    CARTESIAN Y     2.093738     0.791152  KCAL/ANGSTROM
     96         32  H    CARTESIAN Z     1.812486     0.727835  KCAL/ANGSTROM
     97         33  H    CARTESIAN X     3.772055    -0.358058  KCAL/ANGSTROM
     98         33  H    CARTESIAN Y     1.408871     0.148588  KCAL/ANGSTROM
     99         33  H    CARTESIAN Z     2.287693     0.125362  KCAL/ANGSTROM
    100         34  H    CARTESIAN X     2.322268     0.289303  KCAL/ANGSTROM
    101         34  H    CARTESIAN Y     0.406814     0.300385  KCAL/ANGSTROM
    102         34  H    CARTESIAN Z     2.338026     0.137391  KCAL/ANGSTROM
    103         35  H    CARTESIAN X     3.673714     0.430332  KCAL/ANGSTROM
    104         35  H    CARTESIAN Y     1.524087    -0.074313  KCAL/ANGSTROM
    105         35  H    CARTESIAN Z    -0.204734     0.052948  KCAL/ANGSTROM
    106         36  C    CARTESIAN X     4.257174    -0.509371  KCAL/ANGSTROM
    107         36  C    CARTESIAN Y    -5.303331     0.005664  KCAL/ANGSTROM
    108         36  C    CARTESIAN Z    -0.159024     0.265404  KCAL/ANGSTROM
    109         37  C    CARTESIAN X     4.446843     0.621173  KCAL/ANGSTROM
    110         37  C    CARTESIAN Y    -4.108991     0.369812  KCAL/ANGSTROM
    111         37  C    CARTESIAN Z    -1.109387     0.350729  KCAL/ANGSTROM
    112         38  H    CARTESIAN X     3.415950    -0.270107  KCAL/ANGSTROM
    113         38  H    CARTESIAN Y    -5.096764     0.429003  KCAL/ANGSTROM
    114         38  H    CARTESIAN Z     0.518123    -0.006099  KCAL/ANGSTROM
    115         39  H    CARTESIAN X     5.142267    -0.367697  KCAL/ANGSTROM
    116         39  H    CARTESIAN Y    -5.487914    -0.102144  KCAL/ANGSTROM
    117         39  H    CARTESIAN Z     0.451239    -0.079578  KCAL/ANGSTROM
    118         40  H    CARTESIAN X     4.015638    -0.487327  KCAL/ANGSTROM
    119         40  H    CARTESIAN Y    -6.215212    -0.120983  KCAL/ANGSTROM
    120         40  H    CARTESIAN Z    -0.709127     0.515905  KCAL/ANGSTROM
    121         41  C    CARTESIAN X     5.648361     0.478903  KCAL/ANGSTROM
    122         41  C    CARTESIAN Y    -4.306886     0.443588  KCAL/ANGSTROM
    123         41  C    CARTESIAN Z    -2.055101     0.141158  KCAL/ANGSTROM
    124         42  H    CARTESIAN X     3.539416     0.339536  KCAL/ANGSTROM
    125         42  H    CARTESIAN Y    -4.060439    -0.134015  KCAL/ANGSTROM
    126         42  H    CARTESIAN Z    -1.765179     0.403512  KCAL/ANGSTROM
    127         43  H    CARTESIAN X     6.589754     1.074319  KCAL/ANGSTROM
    128         43  H    CARTESIAN Y    -4.437593    -0.038979  KCAL/ANGSTROM
    129         43  H    CARTESIAN Z    -1.515875    -0.306105  KCAL/ANGSTROM
    130         44  H    CARTESIAN X     5.751083    -0.654552  KCAL/ANGSTROM
    131         44  H    CARTESIAN Y    -3.423025     0.086052  KCAL/ANGSTROM
    132         44  H    CARTESIAN Z    -2.697609    -0.275870  KCAL/ANGSTROM
    133         45  H    CARTESIAN X     5.499236     0.096299  KCAL/ANGSTROM
    134         45  H    CARTESIAN Y    -5.172748     0.793557  KCAL/ANGSTROM
    135         45  H    CARTESIAN Z    -2.702223    -0.269229  KCAL/ANGSTROM




   ATOM   CHEMICAL          X               Y               Z
  NUMBER   SYMBOL      (ANGSTROMS)     (ANGSTROMS)     (ANGSTROMS)
 
     1       C         -0.14434641  *  -3.68442204  *  -2.91351440  *
     2       C          0.83217335  *  -2.74585981  *  -2.67237281  *
     3       C         -0.45149346  *  -4.65537608  *  -1.92777297  *
     4       H         -0.68798708  *  -3.70603318  *  -3.85097897  *
     5       C          0.25049389  *  -4.64856015  *  -0.73130956  *
     6       H         -1.22490944  *  -5.38066046  *  -2.12381511  *
     7       C          1.27158710  *  -3.72648198  *  -0.48805450  *
     8       H          0.01059128  *  -5.38118982  *   0.03721204  *
     9       C          1.63659619  *  -2.73813046  *  -1.44598766  *
    10       H          1.81611738  *  -3.75453853  *   0.44743688  *
    11       O          1.16408809  *  -1.71643677  *  -3.55574489  *
    12       C          0.40113627  *  -1.63616996  *  -4.77545060  *
    13       H          0.70194792  *  -2.43928566  *  -5.45417798  *
    14       H          0.69761237  *  -0.65889274  *  -5.16923038  *
    15       H         -0.67512351  *  -1.66566986  *  -4.57964859  *
    16       N          2.57497594  *  -1.78164522  *  -1.30204252  *
    17       C          3.63744185  *  -1.74867078  *  -0.41849288  *
    18       C          3.92868867  *  -0.52738880  *   0.28403761  *
    19       C          4.59681738  *  -2.81923694  *  -0.32695033  *
    20       C          5.13557024  *  -0.42023127  *   0.98409112  *
    21       C          5.75307204  *  -2.67431948  *   0.43753751  *
    22       C          6.04369948  *  -1.47448240  *   1.08831061  *
    23       H          6.45176683  *  -3.50628054  *   0.51614086  *
    24       H          6.95874139  *  -1.36156387  *   1.64993112  *
    25       H          5.38325488  *   0.52058919  *   1.47662932  *
    26       C          3.06807788  *   0.73172812  *   0.31292906  *
    27       C          1.71187123  *   0.67280041  *  -0.39003495  *
    28       H          1.83034577  *   0.36915606  *  -1.44496443  *
    29       H          1.20477503  *   1.63745057  *  -0.36690025  *
    30       H          1.05749620  *  -0.08680866  *   0.05391396  *
    31       C          2.83243485  *   1.19372474  *   1.77344428  *
    32       H          2.21452547  *   2.09373800  *   1.81248585  *
    33       H          3.77205549  *   1.40887130  *   2.28769282  *
    34       H          2.32226818  *   0.40681416  *   2.33802625  *
    35       H          3.67371395  *   1.52408651  *  -0.20473362  *
    36       C          4.25717404  *  -5.30333095  *  -0.15902360  *
    37       C          4.44684315  *  -4.10899114  *  -1.10938687  *
    38       H          3.41594963  *  -5.09676439  *   0.51812315  *
    39       H          5.14226741  *  -5.48791352  *   0.45123914  *
    40       H          4.01563831  *  -6.21521250  *  -0.70912653  *
    41       C          5.64836143  *  -4.30688639  *  -2.05510119  *
    42       H          3.53941582  *  -4.06043891  *  -1.76517895  *
    43       H          6.58975432  *  -4.43759272  *  -1.51587534  *
    44       H          5.75108313  *  -3.42302489  *  -2.69760891  *
    45       H          5.49923604  *  -5.17274823  *  -2.70222281  *

                             CARTESIAN COORDINATES

   1    C       -0.144346414    -3.684422035    -2.913514404
   2    C        0.832173349    -2.745859807    -2.672372809
   3    C       -0.451493462    -4.655376081    -1.927772972
   4    H       -0.687987084    -3.706033179    -3.850978970
   5    C        0.250493893    -4.648560150    -0.731309556
   6    H       -1.224909436    -5.380660462    -2.123815108
   7    C        1.271587096    -3.726481985    -0.488054504
   8    H        0.010591285    -5.381189818     0.037212041
   9    C        1.636596188    -2.738130463    -1.445987656
  10    H        1.816117383    -3.754538534     0.447436878
  11    O        1.164088095    -1.716436766    -3.555744892
  12    C        0.401136272    -1.636169964    -4.775450602
  13    H        0.701947921    -2.439285656    -5.454177975
  14    H        0.697612370    -0.658892738    -5.169230379
  15    H       -0.675123512    -1.665669859    -4.579648588
  16    N        2.574975941    -1.781645220    -1.302042516
  17    C        3.637441849    -1.748670776    -0.418492879
  18    C        3.928688673    -0.527388798     0.284037610
  19    C        4.596817384    -2.819236938    -0.326950335
  20    C        5.135570242    -0.420231267     0.984091123
  21    C        5.753072038    -2.674319482     0.437537509
  22    C        6.043699478    -1.474482398     1.088310614
  23    H        6.451766831    -3.506280539     0.516140857
  24    H        6.958741395    -1.361563870     1.649931118
  25    H        5.383254884     0.520589194     1.476629318
  26    C        3.068077882     0.731728121     0.312929060
  27    C        1.711871233     0.672800412    -0.390034951
  28    H        1.830345773     0.369156063    -1.444964429
  29    H        1.204775027     1.637450567    -0.366900248
  30    H        1.057496201    -0.086808655     0.053913963
  31    C        2.832434852     1.193724744     1.773444277
  32    H        2.214525473     2.093738002     1.812485845
  33    H        3.772055489     1.408871302     2.287692822
  34    H        2.322268177     0.406814155     2.338026250
  35    H        3.673713947     1.524086515    -0.204733622
  36    C        4.257174037    -5.303330947    -0.159023596
  37    C        4.446843146    -4.108991142    -1.109386866
  38    H        3.415949634    -5.096764390     0.518123150
  39    H        5.142267413    -5.487913522     0.451239143
  40    H        4.015638313    -6.215212496    -0.709126527
  41    C        5.648361428    -4.306886390    -2.055101188
  42    H        3.539415825    -4.060438906    -1.765178950
  43    H        6.589754320    -4.437592718    -1.515875336
  44    H        5.751083132    -3.423024890    -2.697608913
  45    H        5.499236045    -5.172748230    -2.702222809


           Empirical Formula: C19 H24 N O  =    45 atoms



      MOLECULAR POINT GROUP   :   C1  


                  EIGENVALUES  
 -26.81774 -26.53219 -25.68740 -25.18775 -24.95025 -24.27669 -22.55455 -21.63161
 -21.37703 -21.31793 -20.97672 -20.54801 -19.99194 -18.10626 -18.04762 -17.01354
 -16.69533 -15.79729 -14.92893 -14.36214 -13.56227 -12.68336 -12.55409 -12.46800
 -12.28864 -11.93361 -11.52679 -11.47252 -11.37631 -11.09135 -10.90538 -10.58204
 -10.40680 -10.23315 -10.17769  -9.82513  -9.76282  -9.56146  -9.36221  -9.22295
  -9.11363  -8.62972  -8.57342  -8.37652  -8.27519  -8.13326  -7.99532  -7.88289
  -7.71657  -7.60016  -6.80496  -6.25473  -5.58574  -5.28965  -4.30470  -3.12386
   4.16309   4.21563   4.53656   5.02309   5.38891   6.44452   6.83291   7.31031
   7.52875   7.60165   7.66823   7.79433   7.86622   7.99384   8.13743   8.29921
   8.31432   8.51870   8.62060   8.68985   8.75341   8.75848   8.89880   8.91580
   8.96898   9.00910   9.04757   9.05683   9.08695   9.15926   9.17697   9.19819
   9.34663   9.43811   9.45880   9.46938   9.62116   9.67535   9.75274   9.87878
   9.88376   9.92302   9.93611  10.00129  10.03308  10.06989  10.12833  10.14471
  10.28544  10.64927  10.91691  11.09161


              NET ATOMIC CHARGES AND DIPOLE CONTRIBUTIONS

  ATOM NO.   TYPE          CHARGE      No. of ELECS.   s-Pop       p-Pop       
    1          C          -0.227964        4.2280     1.09421     3.13375
    2          C           0.105450        3.8945     1.09601     2.79854
    3          C          -0.331529        4.3315     1.08370     3.24782
    4          H           0.123981        0.8760     0.87602
    5          C          -0.022935        4.0229     1.09076     2.93217
    6          H           0.121240        0.8788     0.87876
    7          C          -0.469664        4.4697     1.10038     3.36928
    8          H           0.097594        0.9024     0.90241
    9          C           0.338087        3.6619     1.07160     2.59032
   10          H           0.156107        0.8439     0.84389
   11          O          -0.354021        6.3540     1.84941     4.50461
   12          C          -0.194295        4.1943     1.09522     3.09908
   13          H           0.118265        0.8817     0.88174
   14          H           0.137347        0.8627     0.86265
   15          H           0.121616        0.8784     0.87838
   16          N          -0.606171        5.6062     1.68526     3.92091
   17          C           0.333607        3.6664     1.08420     2.58219
   18          C          -0.174606        4.1746     1.10624     3.06837
   19          C          -0.213013        4.2130     1.10823     3.10478
   20          C          -0.101733        4.1017     1.10047     3.00126
   21          C          -0.076278        4.0763     1.09839     2.97789
   22          C          -0.319500        4.3195     1.09116     3.22834
   23          H           0.114488        0.8855     0.88551
   24          H           0.125053        0.8749     0.87495
   25          H           0.113021        0.8870     0.88698
   26          C           0.064582        3.9354     1.07176     2.86366
   27          C          -0.497510        4.4975     1.08756     3.40995
   28          H           0.197102        0.8029     0.80290
   29          H           0.113854        0.8861     0.88615
   30          H           0.161778        0.8382     0.83822
   31          C          -0.504769        4.5048     1.09235     3.41242
   32          H           0.130252        0.8697     0.86975
   33          H           0.133858        0.8661     0.86614
   34          H           0.152608        0.8474     0.84739
   35          H           0.093495        0.9065     0.90650
   36          C          -0.492314        4.4923     1.08866     3.40365
   37          C           0.039070        3.9609     1.07351     2.88742
   38          H           0.158958        0.8410     0.84104
   39          H           0.132974        0.8670     0.86703
   40          H           0.133734        0.8663     0.86627
   41          C          -0.494852        4.4949     1.08973     3.40512
   42          H           0.142202        0.8578     0.85780
   43          H           0.135850        0.8641     0.86415
   44          H           0.154284        0.8457     0.84572
   45          H           0.130696        0.8693     0.86930
 DIPOLE           X         Y         Z       TOTAL
 POINT-CHG.     0.448     0.535    -0.923     1.157
 HYBRID         0.305    -0.456     0.473     0.725
 SUM            0.753     0.079    -0.449     0.881


          ATOMIC ORBITAL ELECTRON POPULATIONS

     Atom    s        px        py        pz   
    1  C   1.09421   1.05029   1.02910   1.05436
    2  C   1.09601   1.00637   0.89765   0.89453
    3  C   1.08370   1.12759   1.09754   1.02269
    4  H   0.87602
    5  C   1.09076   0.95825   0.98560   0.98833
    6  H   0.87876
    7  C   1.10038   1.14179   1.11427   1.11322
    8  H   0.90241
    9  C   1.07160   0.87521   0.83021   0.88490
   10  H   0.84389
   11  O   1.84941   1.60804   1.55522   1.34135
   12  C   1.09522   1.05961   1.12604   0.91342
   13  H   0.88174
   14  H   0.86265
   15  H   0.87838
   16  N   1.68526   1.21237   1.35258   1.35596
   17  C   1.08420   0.88076   0.90083   0.80061
   18  C   1.10624   0.99924   1.00655   1.06258
   19  C   1.10823   1.01800   1.01562   1.07116
   20  C   1.10047   0.97791   1.02206   1.00128
   21  C   1.09839   1.00233   1.00270   0.97286
   22  C   1.09116   1.07615   1.01688   1.13531
   23  H   0.88551
   24  H   0.87495
   25  H   0.88698
   26  C   1.07176   0.96451   0.98690   0.91225
   27  C   1.08756   1.07499   1.14012   1.19485
   28  H   0.80290
   29  H   0.88615
   30  H   0.83822
   31  C   1.09235   1.15475   1.15151   1.10615
   32  H   0.86975
   33  H   0.86614
   34  H   0.84739
   35  H   0.90650
   36  C   1.08866   1.16302   1.10490   1.13573
   37  C   1.07351   1.01257   0.91547   0.95938
   38  H   0.84104
   39  H   0.86703
   40  H   0.86627
   41  C   1.08973   1.11399   1.16016   1.13097
   42  H   0.85780
   43  H   0.86415
   44  H   0.84572
   45  H   0.86930

          NUMBER OF ITERATIONS =  25
          LOCALISATION VALUE =  28.950151683

   NUMBER OF CENTERS              (COMPOSITION OF ORBITALS)


    1.0111   O  11 99.45
    1.8989   O  11 62.47   C   2 36.93
    2.0437   N  16 54.80   C   9 43.46   C  17  1.09
    2.0155   C   2 50.42   C   1 49.19
    1.9370   O  11 59.87   C  12 39.72
    2.0274   N  16 54.64   C  17 44.12
    2.0200   C  21 49.79   C  19 49.71
    2.0234   C  20 50.17   C  18 49.24
    2.0158   C  22 50.19   C  20 49.41
    2.0159   C  22 50.36   C  21 49.24
    2.0131   C   3 50.40   C   5 49.27
    2.0363   C  18 50.73   C  17 48.35
    2.0316   C  19 51.31   C  17 47.84
    2.0544   C   2 51.94   C   9 46.57
    2.0323   C   7 50.46   C   9 48.73
    2.0170   C   7 50.47   C   5 49.09
    2.0270   C   1 50.55   C   3 48.76
    1.9713   C  12 56.32   H  15 43.60
    1.9720   C  12 56.17   H  13 43.77
    1.9860   C  12 56.40   H  14 43.06
    2.0235   C  19 51.67   C  37 47.66
    1.9848   C  22 56.05   H  24 43.56
    1.9935   C   1 55.83   H   4 43.58
    1.9935   C  20 55.43   H  25 44.09
    1.9921   C  21 55.51   H  23 44.02
    2.0238   C  18 51.66   C  26 47.67
    1.9978   C   5 54.69   H   8 44.88
    1.9868   C   3 55.85   H   6 43.75
    1.9748   C  31 56.39   H  32 43.40
    1.9737   C  31 56.58   H  33 43.19
    1.9749   C  41 56.40   H  45 43.39
    1.9692   C  41 56.75   H  43 43.10
    1.9707   C  36 56.60   H  39 43.25
    1.9733   C  36 56.55   H  40 43.23
    2.0084   C  36 53.32   C  37 46.22
    2.0056   C  41 53.69   C  37 45.86
    2.0019   C  31 54.32   C  26 45.22
    1.9601   C  31 57.56   H  34 42.28
    2.0093   C  27 51.40   C  26 48.33
    1.9639   C  41 57.54   H  44 42.21
    1.9777   C   7 57.37   H  10 42.01
    1.9853   C  27 55.51   H  29 44.22
    1.9632   C  36 57.76   H  38 41.92
    2.0094   C  26 54.22   H  35 45.13
    1.9795   C  37 56.87   H  42 42.64
    1.9569   C  27 57.99   H  30 41.81
    1.1147   N  16 94.66   C  17  2.98
    1.9398   C  27 59.65   H  28 39.96
    1.1029   O  11 95.19   C   2  1.92   C   1  1.57
    2.3603   C   2 47.18   C   1 44.51   C   9  4.81   C   5  2.34
    1.7195   N  16 73.91   C   9 17.95   C  17  5.53
    2.5343   C  19 55.28   C  21 26.31   C  17 13.58   C  20  3.68
    2.4453   C  22 58.43   C  21 18.19   C  20 18.10   C  17  4.05
    2.5598   C  18 54.45   C  20 27.19   C  17 13.74   C  21  3.69
    2.2988   C   3 59.04   C   5 28.37   C   1  6.61   C   9  2.91   C   2  2.59

    2.2222   C   7 63.24   C   5 16.38   C   9 15.02   C   1  2.06   C   2  1.35



                     LOCALIZED ORBITALS 






    ROOT NO.    1           2           3           4           5           6

           -18.03228   -17.38530   -17.36513   -17.00078   -16.61354   -16.44227
  
  
  S  C   1   0.02543     0.02726    -0.01258     0.41553     0.01751    -0.00569
 PX  C   1   0.02374     0.01560    -0.00713     0.38820     0.01109    -0.00615
 PY  C   1   0.01929     0.00855    -0.01771     0.39830     0.01176    -0.00375
 PZ  C   1   0.01041     0.01685    -0.00303     0.09935     0.00360     0.00110
  
  S  C   2  -0.02129    -0.31018     0.01466     0.47945     0.01152     0.02693
 PX  C   2   0.02526    -0.09355    -0.00718    -0.38878     0.03502     0.01142
 PY  C   2   0.02310    -0.36401    -0.01745    -0.33183     0.02304    -0.00295
 PZ  C   2   0.00776     0.36312     0.01692    -0.11421     0.02052     0.03072
  
  S  C   3  -0.00357    -0.01665    -0.00269    -0.00995    -0.00318    -0.00066
 PX  C   3  -0.00035    -0.00371    -0.00585     0.01336    -0.00063     0.00261
 PY  C   3  -0.00285    -0.01598     0.00228     0.00753    -0.00260    -0.00328
 PZ  C   3   0.00414     0.01923     0.00295     0.01415     0.00314    -0.00086
  
  S  H   4   0.00133     0.00823     0.00454    -0.01249    -0.00040     0.00437
  
  S  C   5  -0.00116    -0.00358    -0.01501    -0.00798     0.00038     0.00262
 PX  C   5   0.00042    -0.00027    -0.01186     0.00535     0.00074     0.00038
 PY  C   5  -0.00015    -0.00241    -0.01463    -0.00094     0.00034     0.00289
 PZ  C   5   0.00105     0.00115    -0.00864     0.00341    -0.00011     0.00197
  
  S  H   6   0.00372     0.00582    -0.00201     0.02531     0.00197    -0.00007
  
  S  C   7   0.00143    -0.01358     0.02765    -0.00176     0.00458    -0.01981
 PX  C   7   0.00008    -0.00746    -0.00367    -0.00192     0.00229    -0.01007
 PY  C   7   0.00103    -0.01497     0.00089     0.00012     0.00434    -0.00970
 PZ  C   7  -0.00170     0.01364    -0.02361    -0.00041    -0.00336     0.01672
  
  S  H   8   0.00015    -0.00268     0.00571     0.00420    -0.00002    -0.00257
  
  S  C   9  -0.00356     0.02076    -0.40025    -0.02688    -0.01996    -0.02482
 PX  C   9   0.00134    -0.01865    -0.42897    -0.00765     0.01473     0.01735
 PY  C   9   0.00014    -0.01233    -0.29341    -0.01807     0.00582    -0.05451
 PZ  C   9   0.00178    -0.01195    -0.06520     0.01440     0.01617     0.04078
  
  S  H  10  -0.00025     0.00512     0.00411     0.00253    -0.00199     0.00225
  
  S  O  11   0.89427    -0.26461     0.00340    -0.00241    -0.23253     0.00141
 PX  O  11   0.31500     0.26961    -0.00303    -0.00040     0.45740    -0.00158
 PY  O  11   0.30109     0.58604    -0.00595     0.00915     0.07357    -0.00239
 PZ  O  11   0.07010    -0.37219     0.00332    -0.01241     0.57450    -0.00031
  
  S  C  12  -0.01661     0.00929    -0.00053    -0.00918    -0.26102    -0.00034
 PX  C  12   0.01710     0.02147    -0.00110    -0.00296    -0.27391    -0.00009
 PY  C  12   0.01472     0.02293     0.00036     0.00047     0.07577     0.00028
 PZ  C  12   0.00442    -0.00056    -0.00165    -0.00729    -0.49829    -0.00072
  
  S  H  13   0.01976     0.00608     0.00007     0.00308     0.00771     0.00007
  
  S  H  14  -0.00695    -0.02156     0.00068     0.00359     0.00326    -0.00015
  
  S  H  15   0.02782     0.01533    -0.00031     0.00520     0.00913     0.00040
  
  S  N  16  -0.00083     0.00333    -0.31755     0.01270    -0.00104     0.30123
 PX  N  16  -0.00041    -0.00332     0.33967    -0.00522    -0.00012     0.40023
 PY  N  16   0.00049    -0.00449     0.57604    -0.01726     0.00127    -0.12423
 PZ  N  16  -0.00115    -0.00037     0.00009     0.00579    -0.00253     0.52916
  
  S  C  17   0.00104    -0.00044     0.02499    -0.00774     0.00067     0.39273
 PX  C  17  -0.00202    -0.00000     0.01266     0.00859    -0.00112    -0.47175
 PY  C  17  -0.00086    -0.00095     0.06674    -0.00087    -0.00054    -0.09108
 PZ  C  17   0.00023     0.00241    -0.07549     0.00708     0.00005    -0.23698
  
  S  C  18  -0.00001     0.00030    -0.01881     0.00194     0.00008    -0.02027
 PX  C  18   0.00017     0.00011    -0.00761     0.00033    -0.00000    -0.01313
 PY  C  18   0.00019    -0.00012     0.01244    -0.00181    -0.00005     0.01845
 PZ  C  18  -0.00029    -0.00088     0.02522    -0.00168    -0.00011    -0.00580
  
  S  C  19  -0.00015    -0.00010     0.01260     0.00001    -0.00013    -0.02524
 PX  C  19   0.00031     0.00038    -0.02004     0.00085     0.00009     0.00097
 PY  C  19   0.00002     0.00015     0.00170     0.00054    -0.00005    -0.02188
 PZ  C  19  -0.00031    -0.00068     0.01627    -0.00060    -0.00006    -0.01484
  
  S  C  20   0.00007    -0.00008     0.00382    -0.00085    -0.00001     0.01441
 PX  C  20   0.00001     0.00035    -0.00953     0.00130     0.00006    -0.01567
 PY  C  20   0.00006     0.00020    -0.00308     0.00013     0.00002     0.00325
 PZ  C  20  -0.00027    -0.00035     0.00807     0.00018    -0.00006    -0.01321
  
  S  C  21   0.00008    -0.00003    -0.00119    -0.00048     0.00004     0.01502
 PX  C  21   0.00001     0.00025    -0.00293     0.00062     0.00000    -0.01199
 PY  C  21   0.00006     0.00010    -0.00206     0.00013     0.00001    -0.00294
 PZ  C  21  -0.00025    -0.00027     0.00685     0.00046    -0.00006    -0.01860
  
  S  C  22   0.00002    -0.00000     0.00033    -0.00016    -0.00000     0.00274
 PX  C  22  -0.00019    -0.00035     0.00696    -0.00018    -0.00002    -0.00508
 PY  C  22  -0.00012    -0.00025     0.00549    -0.00024    -0.00002    -0.00242
 PZ  C  22   0.00031     0.00059    -0.01298     0.00059     0.00005     0.00448
  
  S  H  23  -0.00005     0.00001     0.00158     0.00014    -0.00002    -0.00577
  
  S  H  24   0.00002    -0.00002     0.00017    -0.00015    -0.00001     0.00234
  
  S  H  25  -0.00003     0.00008    -0.00280     0.00051     0.00002    -0.00524
  
  S  C  26   0.00000    -0.00001    -0.00086     0.00027     0.00002    -0.00523
 PX  C  26  -0.00007     0.00004     0.00036     0.00009    -0.00003    -0.00157
 PY  C  26   0.00006    -0.00004     0.00114    -0.00043     0.00002     0.00523
 PZ  C  26   0.00005    -0.00001     0.00173    -0.00013     0.00006    -0.00020
  
  S  C  27  -0.00096     0.00009    -0.00200     0.00032    -0.00060     0.00155
 PX  C  27  -0.00017    -0.00006     0.00099    -0.00011    -0.00011     0.00248
 PY  C  27   0.00041    -0.00011    -0.00159    -0.00013     0.00019    -0.00048
 PZ  C  27   0.00138    -0.00010     0.00419    -0.00051     0.00071    -0.00268
  
  S  H  28   0.00230     0.00051     0.00774    -0.00030     0.00185    -0.00650
  
  S  H  29   0.00005    -0.00012     0.00230    -0.00026     0.00003     0.00091
  
  S  H  30   0.00002    -0.00008    -0.00155     0.00003     0.00003     0.00165
  
  S  C  31  -0.00005     0.00007    -0.00145     0.00009    -0.00003     0.00090
 PX  C  31  -0.00001     0.00001    -0.00029     0.00001    -0.00002     0.00049
 PY  C  31   0.00002    -0.00003     0.00070    -0.00005     0.00001    -0.00027
 PZ  C  31   0.00008    -0.00011     0.00233    -0.00016     0.00004    -0.00131
  
  S  H  32  -0.00003    -0.00002     0.00054     0.00000    -0.00001    -0.00047
  
  S  H  33   0.00003     0.00000    -0.00035     0.00003     0.00001    -0.00032
  
  S  H  34  -0.00001     0.00001    -0.00021     0.00001    -0.00001     0.00037
  
  S  H  35  -0.00002    -0.00007     0.00182    -0.00004     0.00001    -0.00030
  
  S  C  36   0.00003    -0.00011    -0.00167    -0.00001     0.00006     0.00075
 PX  C  36  -0.00001     0.00024    -0.00037     0.00005    -0.00008     0.00046
 PY  C  36   0.00004     0.00001    -0.00213     0.00005     0.00001     0.00096
 PZ  C  36  -0.00002    -0.00024     0.00121    -0.00006     0.00007    -0.00092
  
  S  C  37  -0.00010     0.00017     0.00532     0.00015    -0.00004    -0.00666
 PX  C  37   0.00011    -0.00004    -0.00650     0.00007    -0.00002     0.00220
 PY  C  37  -0.00003     0.00007    -0.00165     0.00036     0.00001    -0.00479
 PZ  C  37   0.00002    -0.00019    -0.00423     0.00026     0.00004    -0.00221
  
  S  H  38   0.00001     0.00026    -0.00012     0.00005    -0.00014     0.00058
  
  S  H  39  -0.00001     0.00002     0.00070     0.00001     0.00000    -0.00032
  
  S  H  40  -0.00001    -0.00002     0.00017     0.00003     0.00000    -0.00050
  
  S  C  41  -0.00003    -0.00012     0.00071    -0.00005     0.00001     0.00002
 PX  C  41   0.00003     0.00017    -0.00107     0.00008    -0.00002     0.00009
 PY  C  41  -0.00001    -0.00003     0.00029    -0.00002    -0.00000    -0.00006
 PZ  C  41  -0.00001    -0.00015     0.00040    -0.00006     0.00003     0.00025
  
  S  H  42   0.00013    -0.00020    -0.01173     0.00025     0.00004     0.00445
  
  S  H  43  -0.00001     0.00001     0.00094    -0.00002    -0.00000    -0.00046
  
  S  H  44   0.00001    -0.00002     0.00009    -0.00003     0.00001     0.00020
  
  S  H  45   0.00001     0.00002    -0.00080     0.00006     0.00000    -0.00013




    ROOT NO.    7           8           9          10          11          12

           -16.12929   -16.11727   -16.05394   -16.02786   -15.88362   -15.73515
  
  
  S  C   1   0.00059    -0.00093    -0.00005     0.00001    -0.00867     0.00189
 PX  C   1   0.00189    -0.00033     0.00010     0.00020     0.01648    -0.00139
 PY  C   1  -0.00055    -0.00150    -0.00020    -0.00015     0.00914     0.00481
 PZ  C   1  -0.00066    -0.00044    -0.00011    -0.00009     0.01426     0.00194
  
  S  C   2  -0.00200     0.00273     0.00018    -0.00013    -0.00744    -0.00390
 PX  C   2  -0.00060     0.00161     0.00015    -0.00002     0.00562    -0.00239
 PY  C   2  -0.00031    -0.00066    -0.00001    -0.00014     0.00362     0.00264
 PZ  C   2  -0.00300     0.00332     0.00019    -0.00018     0.00393    -0.00415
  
  S  C   3   0.00002    -0.00016    -0.00001    -0.00000     0.42130     0.00042
 PX  C   3  -0.00168    -0.00069    -0.00017    -0.00023     0.28580     0.00383
 PY  C   3   0.00161     0.00041     0.00014     0.00020     0.00174    -0.00296
 PZ  C   3   0.00077     0.00050     0.00009     0.00013     0.49482    -0.00221
  
  S  H   4  -0.00053     0.00069     0.00004    -0.00001     0.02738    -0.00106
  
  S  C   5   0.00023    -0.00036     0.00000    -0.00006     0.41955     0.00120
 PX  C   5   0.00121    -0.00000     0.00009     0.00004    -0.28461    -0.00083
 PY  C   5  -0.00066    -0.00082    -0.00010    -0.00013     0.00130     0.00331
 PZ  C   5  -0.00059    -0.00039    -0.00006    -0.00007    -0.48541     0.00176
  
  S  H   6   0.00009    -0.00014    -0.00001    -0.00000    -0.01083     0.00029
  
  S  C   7   0.00126    -0.00069    -0.00011     0.00014    -0.01042    -0.00035
 PX  C   7   0.00280     0.00023     0.00015     0.00029     0.00043    -0.00391
 PY  C   7  -0.00052    -0.00158    -0.00023    -0.00023     0.01188     0.00480
 PZ  C   7  -0.00295     0.00041    -0.00008    -0.00026    -0.01860     0.00273
  
  S  H   8   0.00021    -0.00005    -0.00000     0.00003    -0.01587    -0.00031
  
  S  C   9   0.00204    -0.00724    -0.00035    -0.00021    -0.00860     0.02386
 PX  C   9  -0.00484    -0.00931    -0.00099    -0.00099     0.00100     0.03931
 PY  C   9   0.01042    -0.00457     0.00020     0.00076     0.00535     0.00516
 PZ  C   9   0.00270     0.00322     0.00042     0.00046    -0.00514    -0.01160
  
  S  H  10   0.00010     0.00031     0.00007    -0.00008     0.02641    -0.00041
  
  S  O  11  -0.00018     0.00023     0.00000     0.00001    -0.00015    -0.00047
 PX  O  11   0.00004    -0.00019    -0.00000    -0.00004     0.00024     0.00060
 PY  O  11   0.00035    -0.00036    -0.00000    -0.00000    -0.00141     0.00072
 PZ  O  11  -0.00003     0.00023     0.00002     0.00001     0.00221    -0.00059
  
  S  C  12   0.00006     0.00000     0.00001    -0.00001     0.00036     0.00001
 PX  C  12   0.00001    -0.00004     0.00000    -0.00002     0.00194     0.00018
 PY  C  12  -0.00002     0.00004     0.00000     0.00001    -0.00040    -0.00011
 PZ  C  12   0.00018    -0.00004     0.00002    -0.00001     0.00258     0.00007
  
  S  H  13   0.00003     0.00004     0.00001     0.00001     0.00013    -0.00012
  
  S  H  14  -0.00002     0.00002    -0.00000     0.00000     0.00087    -0.00007
  
  S  H  15  -0.00009     0.00001    -0.00000    -0.00001     0.00060     0.00010
  
  S  N  16  -0.01107     0.01394     0.00112    -0.00073     0.00025    -0.01807
 PX  N  16  -0.01229     0.01136     0.00138    -0.00176    -0.00143     0.00420
 PY  N  16   0.00360    -0.01028    -0.00046     0.00034    -0.00166     0.02931
 PZ  N  16  -0.01975     0.01820     0.00191    -0.00158    -0.00063    -0.00653
  
  S  C  17   0.02017    -0.02013    -0.00706     0.00739     0.00067     0.43916
 PX  C  17  -0.01863     0.02781     0.00068     0.00386    -0.00144     0.09371
 PY  C  17  -0.01555    -0.00983    -0.00512    -0.00506    -0.00072     0.46758
 PZ  C  17  -0.01625     0.00894    -0.00210    -0.00161     0.00057     0.25137
  
  S  C  18   0.00449     0.42505    -0.01538     0.00763     0.00006     0.43460
 PX  C  18  -0.00262     0.48457     0.00520     0.00650     0.00020    -0.14503
 PY  C  18  -0.00226     0.04084    -0.02468     0.00161     0.00018    -0.46647
 PZ  C  18  -0.00187     0.27435    -0.00741     0.00433    -0.00065    -0.28246
  
  S  C  19  -0.42855    -0.00507    -0.00792     0.01500    -0.00026    -0.02466
 PX  C  19  -0.46224     0.00389    -0.00684     0.00866     0.00028     0.02346
 PY  C  19  -0.06264    -0.00212     0.00045    -0.02480    -0.00011     0.00538
 PZ  C  19  -0.30961     0.00206    -0.00356    -0.00637    -0.00037     0.01467
  
  S  C  20   0.00893     0.42337     0.41687     0.00887     0.00005    -0.01451
 PX  C  20   0.00593    -0.48309     0.36377     0.01410    -0.00006     0.01042
 PY  C  20  -0.00410    -0.05250    -0.43246     0.01516     0.00002    -0.02089
 PZ  C  20  -0.00026    -0.29387     0.03167     0.01404    -0.00007    -0.00799
  
  S  C  21  -0.41959    -0.00875    -0.00901    -0.41549     0.00012    -0.00522
 PX  C  21   0.47368    -0.00240    -0.02075    -0.10845     0.00016     0.00175
 PY  C  21   0.05192    -0.00556     0.01136    -0.48298     0.00018    -0.00074
 PZ  C  21   0.30789    -0.00281    -0.00818    -0.27333    -0.00062     0.00660
  
  S  C  22   0.01160    -0.01186     0.41316    -0.41335     0.00002    -0.00634
 PX  C  22   0.01928    -0.01194    -0.36982     0.11925    -0.00026     0.00345
 PY  C  22  -0.01194    -0.01547     0.43885     0.50200    -0.00017    -0.00464
 PZ  C  22   0.00708    -0.01305    -0.04302     0.25796     0.00041    -0.00008
  
  S  H  23   0.01292     0.00405     0.02917     0.01516    -0.00006     0.00158
  
  S  H  24  -0.02790     0.02755    -0.01062     0.01036     0.00002     0.00228
  
  S  H  25  -0.00432    -0.01353    -0.01351    -0.02883    -0.00001     0.02896
  
  S  C  26  -0.00143    -0.01799     0.01663    -0.00111    -0.00005    -0.01804
 PX  C  26  -0.00126     0.01336     0.00852    -0.00084    -0.00003    -0.01744
 PY  C  26   0.00198     0.01614    -0.02306     0.00211     0.00004     0.00088
 PZ  C  26  -0.00015     0.01544    -0.00355     0.00015    -0.00003    -0.01641
  
  S  C  27  -0.00037     0.01348    -0.00314     0.00030    -0.00004    -0.00701
 PX  C  27  -0.00012     0.01880    -0.00428     0.00045     0.00004    -0.00570
 PY  C  27   0.00014     0.00271    -0.00067     0.00004     0.00003    -0.00011
 PZ  C  27   0.00040     0.00995    -0.00238     0.00026    -0.00001    -0.00236
  
  S  H  28   0.00057     0.00099    -0.00056     0.00007     0.00005     0.00112
  
  S  H  29  -0.00006    -0.00415     0.00241    -0.00023    -0.00000     0.00248
  
  S  H  30   0.00006     0.00101    -0.00048     0.00010     0.00007     0.00149
  
  S  C  31   0.00031    -0.00398     0.00197     0.00081     0.00004     0.00664
 PX  C  31   0.00023     0.00001     0.00179     0.00102     0.00002     0.00091
 PY  C  31  -0.00005    -0.00008     0.00065     0.00033    -0.00002    -0.00196
 PZ  C  31  -0.00021     0.00289     0.00054     0.00063    -0.00008    -0.01461
  
  S  H  32  -0.00022     0.00268     0.00041    -0.00036    -0.00002    -0.00246
  
  S  H  33  -0.00007     0.00030    -0.00323    -0.00124     0.00001     0.00213
  
  S  H  34   0.00005     0.00121    -0.00049    -0.00003     0.00002     0.00248
  
  S  H  35   0.00039    -0.00027     0.00002    -0.00015    -0.00007     0.01242
  
  S  C  36   0.00286    -0.00039    -0.00055    -0.00120    -0.00040    -0.00152
 PX  C  36   0.00076    -0.00013    -0.00049    -0.00112     0.00060    -0.00066
 PY  C  36   0.00001    -0.00040     0.00001     0.00025    -0.00010    -0.00175
 PZ  C  36  -0.00053     0.00024    -0.00023    -0.00055    -0.00049     0.00236
  
  S  C  37   0.01118     0.00192     0.00147    -0.01523    -0.00027     0.01630
 PX  C  37  -0.01421     0.00032     0.00020    -0.00017     0.00008     0.00618
 PY  C  37   0.01304     0.00203     0.00218    -0.02255    -0.00002     0.01873
 PZ  C  37   0.00007     0.00134     0.00152    -0.01280     0.00006     0.01455
  
  S  H  38  -0.00130    -0.00002     0.00001     0.00059     0.00071    -0.00094
  
  S  H  39  -0.00165     0.00004     0.00058     0.00218     0.00003    -0.00062
  
  S  H  40  -0.00169     0.00021     0.00032    -0.00089     0.00003     0.00200
  
  S  C  41   0.00469    -0.00032    -0.00054    -0.00164     0.00001    -0.00180
 PX  C  41  -0.00248     0.00024    -0.00070    -0.00076    -0.00003     0.00260
 PY  C  41  -0.00054    -0.00002     0.00014     0.00045     0.00000     0.00014
 PZ  C  41   0.00182    -0.00034    -0.00032    -0.00109     0.00003    -0.00185
  
  S  H  42  -0.02131     0.00003    -0.00055     0.00417     0.00027     0.00235
  
  S  H  43  -0.00139     0.00004     0.00075     0.00251    -0.00002    -0.00062
  
  S  H  44  -0.00139    -0.00004     0.00004     0.00040     0.00001    -0.00069
  
  S  H  45  -0.00252     0.00019     0.00033    -0.00067     0.00001     0.00203




    ROOT NO.   13          14          15          16          17          18

           -15.71322   -15.71233   -15.63940   -15.62751   -15.45625   -14.55553
  
  
  S  C   1   0.00043    -0.02156    -0.00210     0.00918     0.41580    -0.00665
 PX  C   1   0.00499    -0.00404    -0.00042    -0.00242    -0.11643    -0.00024
 PY  C   1  -0.00366    -0.01426    -0.00171    -0.00573    -0.39655     0.01108
 PZ  C   1  -0.00261     0.01937    -0.00011     0.00506     0.40227     0.01067
  
  S  C   2  -0.00132     0.46458    -0.03267     0.00702    -0.02454    -0.00764
 PX  C   2   0.00117     0.31953    -0.02089     0.00501    -0.00324     0.00736
 PY  C   2  -0.00134     0.04447    -0.03287     0.00376    -0.03245    -0.01061
 PZ  C   2  -0.00300     0.44667     0.01396     0.00146     0.04283    -0.00166
  
  S  C   3  -0.00024    -0.00434    -0.00907     0.01170     0.40008     0.00264
 PX  C   3  -0.00560    -0.00119    -0.00401    -0.01167     0.12653     0.00229
 PY  C   3   0.00502    -0.00137     0.00003    -0.01904     0.38886     0.00149
 PZ  C   3   0.00273     0.00425    -0.00451     0.01095    -0.40042    -0.00250
  
  S  H   4  -0.00040     0.02779     0.00245    -0.00384    -0.00855     0.01301
  
  S  C   5   0.00045    -0.00631    -0.01091    -0.41519    -0.01031    -0.00093
 PX  C   5   0.00355    -0.00165    -0.00329    -0.40662     0.01316     0.00242
 PY  C   5  -0.00247    -0.00627     0.00965    -0.38019     0.02062    -0.00168
 PZ  C   5  -0.00210    -0.00272    -0.02347    -0.09310    -0.00886    -0.00023
  
  S  H   6   0.00015     0.00173     0.00368    -0.02886    -0.01040     0.00048
  
  S  C   7   0.00116    -0.02046     0.40830    -0.42195    -0.00938    -0.00050
 PX  C   7   0.00765    -0.01823     0.14601     0.42467     0.00520    -0.00175
 PY  C   7  -0.00340    -0.01892     0.39415     0.36686     0.00450     0.00127
 PZ  C   7  -0.00912     0.00190    -0.40150     0.10847     0.00160     0.00139
  
  S  H   8   0.00055     0.00159     0.02845     0.01408     0.03023     0.00055
  
  S  C   9  -0.00213     0.41174     0.44769     0.01734    -0.00595     0.00185
 PX  C   9  -0.02673    -0.28631    -0.12248     0.02439     0.00160    -0.00107
 PY  C   9   0.02958     0.03505    -0.37621     0.01578    -0.00261    -0.00028
 PZ  C   9   0.01412    -0.46153     0.36100     0.01547     0.00381    -0.00203
  
  S  H  10   0.00322     0.02483    -0.00604     0.00680     0.00399     0.00019
  
  S  O  11  -0.00024    -0.01624     0.01358    -0.00131     0.01257    -0.00014
 PX  O  11   0.00000     0.02967    -0.01742     0.00132    -0.01380    -0.00341
 PY  O  11   0.00057     0.01070    -0.02196     0.00265    -0.02543    -0.00276
 PZ  O  11   0.00024     0.02996     0.00330    -0.00141     0.01274     0.00679
  
  S  C  12   0.00023     0.02563    -0.00830     0.00055     0.00045     0.40140
 PX  C  12   0.00002     0.03156    -0.01054     0.00046    -0.00477    -0.61761
 PY  C  12  -0.00002    -0.00533     0.00241    -0.00022     0.00195    -0.02493
 PZ  C  12   0.00055     0.05231    -0.01826     0.00106    -0.00692     0.14150
  
  S  H  13   0.00013     0.00084    -0.00031     0.00004    -0.00134    -0.00324
  
  S  H  14  -0.00003    -0.00257     0.00328    -0.00047     0.00051     0.00105
  
  S  H  15  -0.00020     0.00212    -0.00139     0.00007    -0.00412     0.66029
  
  S  N  16  -0.00750    -0.02072    -0.00513    -0.01191     0.00172    -0.00019
 PX  N  16  -0.00770    -0.01817     0.01574     0.01222    -0.00145    -0.00039
 PY  N  16  -0.00359     0.01568     0.01401     0.02026    -0.00225     0.00035
 PZ  N  16  -0.02066    -0.02702     0.01049    -0.00044     0.00026    -0.00003
  
  S  C  17   0.43545     0.03027    -0.00879     0.00132    -0.00086     0.00032
 PX  C  17   0.34395    -0.03846     0.02039     0.00127     0.00126    -0.00036
 PY  C  17  -0.41153    -0.00403     0.01383     0.00425     0.00015    -0.00010
 PZ  C  17   0.03421    -0.01679    -0.02017    -0.00897     0.00054    -0.00021
  
  S  C  18  -0.02527    -0.00411     0.00042    -0.00118     0.00021    -0.00005
 PX  C  18   0.02561     0.00003    -0.00271    -0.00078     0.00001     0.00003
 PY  C  18   0.00031     0.00493    -0.00297     0.00050    -0.00019     0.00008
 PZ  C  18   0.01481    -0.00008     0.00568     0.00270    -0.00024    -0.00003
  
  S  C  19   0.43553    -0.00146     0.00275     0.00068     0.00001     0.00000
 PX  C  19  -0.39318     0.00088    -0.00619    -0.00276     0.00003     0.00001
 PY  C  19   0.40856    -0.00135    -0.00006    -0.00063     0.00007     0.00002
 PZ  C  19  -0.04402    -0.00206     0.00632     0.00270    -0.00006    -0.00008
  
  S  C  20  -0.00578     0.00247    -0.00039     0.00038    -0.00010     0.00003
 PX  C  20   0.00524    -0.00267    -0.00203    -0.00164     0.00009    -0.00004
 PY  C  20  -0.00014     0.00041    -0.00189    -0.00083    -0.00002    -0.00001
 PZ  C  20   0.00188    -0.00249     0.00508     0.00184     0.00017    -0.00002
  
  S  C  21  -0.01406     0.00172    -0.00067     0.00024    -0.00006     0.00002
 PX  C  21  -0.00466    -0.00132    -0.00111    -0.00045     0.00008    -0.00003
 PY  C  21   0.02278     0.00003    -0.00089    -0.00007     0.00001    -0.00002
 PZ  C  21   0.00803    -0.00295     0.00352     0.00001     0.00008     0.00001
  
  S  C  22  -0.00675     0.00056    -0.00020     0.00001    -0.00002     0.00001
 PX  C  22   0.00079    -0.00128     0.00334     0.00114     0.00000    -0.00002
 PY  C  22   0.00536    -0.00062     0.00219     0.00085    -0.00001    -0.00001
 PZ  C  22   0.00200     0.00130    -0.00552    -0.00205     0.00002     0.00002
  
  S  H  23   0.02876    -0.00072     0.00052     0.00007     0.00003    -0.00000
  
  S  H  24   0.00262     0.00044    -0.00012     0.00008    -0.00002     0.00000
  
  S  H  25   0.00218    -0.00120     0.00018    -0.00028     0.00006    -0.00002
  
  S  C  26   0.01669    -0.00079     0.00023    -0.00013     0.00002    -0.00000
 PX  C  26   0.01427    -0.00047     0.00009    -0.00002     0.00002    -0.00001
 PY  C  26  -0.02128     0.00116    -0.00012     0.00025    -0.00005     0.00000
 PZ  C  26   0.00268     0.00009     0.00049     0.00022    -0.00000     0.00000
  
  S  C  27   0.00020    -0.00121    -0.00086    -0.00050     0.00009    -0.00008
 PX  C  27   0.00098     0.00045     0.00033     0.00012     0.00002     0.00000
 PY  C  27   0.00006     0.00058     0.00028     0.00020    -0.00006     0.00004
 PZ  C  27   0.00119     0.00125     0.00026     0.00057    -0.00020     0.00008
  
  S  H  28   0.00156     0.00158     0.00120     0.00051    -0.00009     0.00012
  
  S  H  29   0.00123     0.00046     0.00041     0.00031    -0.00002     0.00002
  
  S  H  30  -0.00026     0.00074     0.00079     0.00009     0.00003     0.00002
  
  S  C  31  -0.00208     0.00006    -0.00049    -0.00022     0.00002    -0.00000
 PX  C  31  -0.00043     0.00007    -0.00013    -0.00004     0.00000     0.00000
 PY  C  31   0.00048    -0.00003     0.00022     0.00011    -0.00001    -0.00000
 PZ  C  31   0.00358    -0.00003     0.00068     0.00029    -0.00003     0.00000
  
  S  H  32   0.00218    -0.00013     0.00021     0.00006     0.00000    -0.00000
  
  S  H  33  -0.00044    -0.00003    -0.00005    -0.00003    -0.00000     0.00000
  
  S  H  34  -0.00096     0.00002    -0.00006     0.00000     0.00000    -0.00000
  
  S  H  35  -0.00227    -0.00032     0.00086     0.00027    -0.00001    -0.00001
  
  S  C  36   0.00587    -0.00036     0.00007    -0.00037    -0.00015     0.00002
 PX  C  36   0.00267     0.00089    -0.00082     0.00041     0.00018    -0.00002
 PY  C  36   0.00850     0.00013    -0.00016    -0.00046    -0.00004     0.00002
 PZ  C  36  -0.01028    -0.00087     0.00107    -0.00013    -0.00013     0.00001
  
  S  C  37  -0.02186    -0.00196    -0.00475    -0.00025    -0.00009     0.00001
 PX  C  37  -0.01840     0.00207     0.00323    -0.00078     0.00010    -0.00001
 PY  C  37   0.00249    -0.00107    -0.00000    -0.00014     0.00003    -0.00003
 PZ  C  37  -0.01076     0.00007     0.00546     0.00025     0.00014    -0.00003
  
  S  H  38   0.00263     0.00130    -0.00190     0.00070     0.00020     0.00001
  
  S  H  39   0.00150    -0.00011    -0.00021    -0.00013     0.00002    -0.00001
  
  S  H  40  -0.00177    -0.00010     0.00055    -0.00008     0.00003    -0.00000
  
  S  C  41   0.00654    -0.00033     0.00154     0.00050     0.00001    -0.00001
 PX  C  41  -0.01170     0.00038    -0.00190    -0.00068    -0.00001     0.00002
 PY  C  41  -0.00094    -0.00007     0.00033     0.00011     0.00000    -0.00001
 PZ  C  41   0.00851    -0.00027     0.00184     0.00057     0.00001    -0.00002
  
  S  H  42  -0.00685     0.00326     0.00996    -0.00053     0.00021     0.00001
  
  S  H  43   0.00169    -0.00013    -0.00046     0.00001    -0.00002     0.00000
  
  S  H  44   0.00249     0.00007     0.00025     0.00010     0.00001    -0.00000
  
  S  H  45  -0.00200     0.00001    -0.00007    -0.00012     0.00001    -0.00000




    ROOT NO.   19          20          21          22          23          24

           -14.53914   -14.51114   -14.05226   -14.03972   -14.01944   -13.98650
  
  
  S  C   1  -0.00390     0.00054    -0.00020    -0.00011     0.44526     0.00033
 PX  C   1   0.01331    -0.00501    -0.00022    -0.00016    -0.30172    -0.00015
 PY  C   1  -0.00504    -0.00095    -0.00024    -0.00007    -0.00319     0.00076
 PZ  C   1  -0.00135    -0.00133    -0.00000     0.00002    -0.51868     0.00029
  
  S  C   2   0.00000     0.03125     0.00019     0.00031    -0.01035    -0.00080
 PX  C   2  -0.00743     0.01402    -0.00014     0.00015    -0.00501    -0.00055
 PY  C   2   0.01244     0.03604    -0.00010    -0.00003     0.02038     0.00040
 PZ  C   2   0.00277    -0.03508     0.00054     0.00044    -0.04043    -0.00091
  
  S  C   3   0.00179     0.00110     0.00006    -0.00001    -0.01636     0.00007
 PX  C   3   0.00000     0.00016     0.00011     0.00007    -0.01594     0.00059
 PY  C   3   0.00246     0.00143    -0.00011    -0.00009    -0.00511    -0.00045
 PZ  C   3  -0.00096    -0.00197     0.00012    -0.00001    -0.01724    -0.00036
  
  S  H   4   0.00787    -0.00716     0.00015     0.00009     0.66013    -0.00022
  
  S  C   5  -0.00046     0.00097    -0.00062    -0.00005     0.01595     0.00016
 PX  C   5  -0.00247     0.00076    -0.00040    -0.00010    -0.01167    -0.00012
 PY  C   5   0.00275    -0.00035    -0.00068    -0.00001    -0.00435     0.00048
 PZ  C   5   0.00212    -0.00096    -0.00016     0.00001    -0.01645     0.00025
  
  S  H   6   0.00026    -0.00085    -0.00010    -0.00002    -0.00526     0.00005
  
  S  C   7   0.00012     0.00272     0.00074    -0.00009     0.00118     0.00013
 PX  C   7   0.00201     0.00095    -0.00043    -0.00015    -0.00047    -0.00048
 PY  C   7  -0.00154     0.00325    -0.00063    -0.00007    -0.00069     0.00085
 PZ  C   7  -0.00136    -0.00265     0.00137     0.00022    -0.00063     0.00025
  
  S  H   8   0.00040     0.00032     0.00000    -0.00002    -0.00525    -0.00001
  
  S  C   9   0.00025    -0.00471    -0.00127    -0.00058     0.02022     0.00285
 PX  C   9   0.00036     0.00363    -0.00240    -0.00031    -0.01098     0.00464
 PY  C   9  -0.00027     0.00217    -0.00217    -0.00089     0.00716     0.00074
 PZ  C   9  -0.00073     0.00445    -0.00006     0.00003    -0.02083    -0.00162
  
  S  H  10  -0.00005    -0.00116    -0.00159     0.00001     0.00207    -0.00008
  
  S  O  11  -0.00241    -0.01258     0.00012     0.00003    -0.00901    -0.00008
 PX  O  11   0.00465     0.01269    -0.00010    -0.00002     0.01151     0.00010
 PY  O  11  -0.00100     0.02942    -0.00019    -0.00006     0.01357     0.00012
 PZ  O  11  -0.00138    -0.01812     0.00003     0.00002     0.00002    -0.00010
  
  S  C  12   0.40102     0.39536    -0.00007    -0.00001    -0.00565     0.00000
 PX  C  12   0.18748     0.18558    -0.00008    -0.00000     0.01248     0.00003
 PY  C  12  -0.47703     0.57202     0.00003     0.00000    -0.00412    -0.00002
 PZ  C  12  -0.37169    -0.21453    -0.00017    -0.00002     0.01421     0.00001
  
  S  H  13   0.66162    -0.00031     0.00000     0.00000     0.00441    -0.00002
  
  S  H  14  -0.00032     0.65622     0.00002     0.00000     0.00815    -0.00001
  
  S  H  15  -0.00329     0.00102     0.00001     0.00001     0.01198     0.00001
  
  S  N  16  -0.00018    -0.00072     0.00484     0.00128    -0.00417    -0.00351
 PX  N  16   0.00002     0.00076     0.00445     0.00114     0.00069    -0.00160
 PY  N  16   0.00017     0.00083    -0.00394    -0.00075     0.00387     0.00265
 PZ  N  16  -0.00026    -0.00011     0.00550     0.00197    -0.00213    -0.00404
  
  S  C  17   0.00018     0.00015     0.01947     0.00052     0.00392     0.01923
 PX  C  17  -0.00059    -0.00002     0.01995     0.00213    -0.00477    -0.00212
 PY  C  17  -0.00020     0.00015     0.01192     0.00007    -0.00024     0.01967
 PZ  C  17   0.00041    -0.00062     0.02138     0.00099    -0.00297     0.00870
  
  S  C  18  -0.00003    -0.00004    -0.01713     0.01815    -0.00069    -0.01634
 PX  C  18   0.00005    -0.00005     0.01048     0.01916    -0.00008    -0.00602
 PY  C  18   0.00008    -0.00000     0.01554     0.00617     0.00074     0.02785
 PZ  C  18  -0.00009     0.00020     0.01212     0.01128     0.00035     0.00883
  
  S  C  19  -0.00001    -0.00002    -0.41910     0.01766    -0.00022     0.00035
 PX  C  19   0.00006    -0.00006     0.08217     0.01877    -0.00004     0.00136
 PY  C  19   0.00004    -0.00009     0.49691    -0.00250    -0.00036     0.00065
 PZ  C  19  -0.00008     0.00016     0.29568     0.01233    -0.00001     0.00085
  
  S  C  20   0.00002     0.00002    -0.00271    -0.01899     0.00041     0.44157
 PX  C  20   0.00005    -0.00009     0.00040     0.01905    -0.00056     0.13137
 PY  C  20   0.00005    -0.00005     0.00198     0.00964    -0.00001     0.51788
 PZ  C  20  -0.00013     0.00009     0.00085     0.01641    -0.00023     0.27175
  
  S  C  21   0.00001     0.00002     0.02050    -0.01888     0.00030     0.01689
 PX  C  21   0.00007    -0.00009    -0.00843     0.02461    -0.00033     0.00813
 PY  C  21   0.00006    -0.00004     0.02503    -0.00410    -0.00004     0.01695
 PZ  C  21  -0.00015     0.00008     0.00989     0.00946    -0.00038     0.01205
  
  S  C  22   0.00000     0.00000    -0.01743     0.44974     0.00009    -0.01873
 PX  C  22  -0.00008     0.00010     0.00173     0.50592    -0.00006     0.01336
 PY  C  22  -0.00005     0.00007     0.02279     0.06348     0.00001     0.01680
 PZ  C  22   0.00014    -0.00016     0.00874     0.31337    -0.00005     0.01407
  
  S  H  23  -0.00000    -0.00001     0.00779    -0.00489    -0.00013    -0.00553
  
  S  H  24   0.00000     0.00001     0.00481     0.65998     0.00009    -0.00582
  
  S  H  25  -0.00001    -0.00001    -0.00247    -0.00518    -0.00022     0.66401
  
  S  C  26  -0.00001     0.00002     0.00374    -0.00305    -0.00013    -0.01079
 PX  C  26  -0.00001    -0.00004     0.00318    -0.00077    -0.00008    -0.00157
 PY  C  26   0.00002     0.00002    -0.00411     0.00414     0.00021     0.00595
 PZ  C  26   0.00000     0.00002     0.00116     0.00112     0.00004     0.00331
  
  S  C  27  -0.00008    -0.00031     0.00078     0.00138    -0.00018     0.00274
 PX  C  27  -0.00001    -0.00005     0.00069     0.00192     0.00004     0.00442
 PY  C  27   0.00002     0.00014    -0.00011     0.00021     0.00009     0.00019
 PZ  C  27   0.00014     0.00045     0.00009     0.00097     0.00028     0.00243
  
  S  H  28   0.00022     0.00058    -0.00034     0.00019     0.00025     0.00041
  
  S  H  29   0.00001     0.00004     0.00003    -0.00068     0.00007    -0.00071
  
  S  H  30  -0.00001     0.00001    -0.00018     0.00021     0.00004    -0.00022
  
  S  C  31   0.00000    -0.00004    -0.00083    -0.00003    -0.00002    -0.01036
 PX  C  31  -0.00000    -0.00001    -0.00015     0.00014     0.00000    -0.01013
 PY  C  31  -0.00000     0.00002     0.00032     0.00018     0.00001    -0.00416
 PZ  C  31   0.00000     0.00006     0.00171     0.00041     0.00005    -0.00687
  
  S  H  32  -0.00001     0.00000     0.00058    -0.00019    -0.00001     0.00396
  
  S  H  33   0.00000     0.00001    -0.00030    -0.00033    -0.00001     0.01887
  
  S  H  34  -0.00000    -0.00001    -0.00036     0.00010     0.00000     0.00147
  
  S  H  35  -0.00001     0.00003    -0.00136    -0.00045    -0.00001     0.00383
  
  S  C  36  -0.00001     0.00003     0.01192    -0.00016    -0.00003     0.00018
 PX  C  36   0.00004    -0.00007    -0.00203     0.00000     0.00006     0.00016
 PY  C  36   0.00000    -0.00000    -0.00488    -0.00029    -0.00001    -0.00003
 PZ  C  36  -0.00004     0.00007    -0.01650     0.00020    -0.00005     0.00015
  
  S  C  37  -0.00009    -0.00001    -0.35891    -0.00243    -0.00012     0.00133
 PX  C  37   0.00010    -0.00002    -0.07441     0.00026     0.00002     0.00036
 PY  C  37   0.00002    -0.00002    -0.49220    -0.00381    -0.00018     0.00211
 PZ  C  37   0.00007     0.00001    -0.31621    -0.00206    -0.00013     0.00136
  
  S  H  38   0.00002    -0.00006     0.00378     0.00012     0.00006    -0.00010
  
  S  H  39   0.00001    -0.00001     0.00363     0.00001    -0.00000    -0.00025
  
  S  H  40   0.00000     0.00000    -0.02400    -0.00018    -0.00002     0.00015
  
  S  C  41   0.00000     0.00002     0.01154    -0.00018    -0.00002     0.00016
 PX  C  41  -0.00001    -0.00003    -0.01193     0.00034     0.00002     0.00029
 PY  C  41   0.00000     0.00000    -0.01213    -0.00007    -0.00000    -0.00005
 PZ  C  41   0.00002     0.00003    -0.00280    -0.00021    -0.00001     0.00010
  
  S  H  42   0.00011    -0.00000     0.00647     0.00201     0.00008     0.00008
  
  S  H  43  -0.00001     0.00000     0.00420    -0.00003     0.00000    -0.00029
  
  S  H  44   0.00001     0.00001     0.00341     0.00010     0.00001    -0.00007
  
  S  H  45   0.00001    -0.00001    -0.02361    -0.00020    -0.00002     0.00014




    ROOT NO.   25          26          27          28          29          30

           -13.95830   -13.95388   -13.77102   -13.71517   -13.67881   -13.65074
  
  
  S  C   1   0.00015    -0.00027     0.01726    -0.01839     0.00000     0.00000
 PX  C   1   0.00095    -0.00051    -0.00727    -0.02029    -0.00011     0.00005
 PY  C   1  -0.00056    -0.00005    -0.01759    -0.01354     0.00010    -0.00003
 PZ  C   1  -0.00045     0.00010     0.01330    -0.01052     0.00007    -0.00002
  
  S  C   2  -0.00051     0.00077    -0.00113     0.02099    -0.00008    -0.00000
 PX  C   2  -0.00001     0.00064    -0.00225    -0.01355    -0.00019     0.00005
 PY  C   2  -0.00016    -0.00023    -0.00303    -0.00853     0.00012    -0.00008
 PZ  C   2  -0.00084     0.00084     0.00139    -0.01264    -0.00007     0.00003
  
  S  C   3  -0.00001    -0.00003    -0.02126     0.45010    -0.00001     0.00000
 PX  C   3  -0.00094     0.00016    -0.01343    -0.42820     0.00019    -0.00008
 PY  C   3   0.00087    -0.00018    -0.02143    -0.40121    -0.00018     0.00007
 PZ  C   3   0.00047    -0.00004     0.01096    -0.10747    -0.00014     0.00006
  
  S  H   4  -0.00013     0.00020    -0.00485    -0.00542    -0.00002     0.00001
  
  S  C   5   0.00002    -0.00016     0.44206    -0.01951    -0.00002     0.00002
 PX  C   5   0.00050    -0.00036    -0.13081    -0.01691    -0.00014     0.00006
 PY  C   5  -0.00038     0.00000    -0.39951    -0.02163     0.00009    -0.00001
 PZ  C   5  -0.00030     0.00010     0.41804     0.00308     0.00005    -0.00002
  
  S  H   6   0.00003    -0.00005    -0.00547     0.66146     0.00000     0.00000
  
  S  C   7   0.00030    -0.00012    -0.02021     0.01718     0.00011    -0.00006
 PX  C   7   0.00127    -0.00011     0.00097    -0.01694    -0.00021     0.00007
 PY  C   7  -0.00062    -0.00018    -0.01353    -0.01570     0.00038    -0.00018
 PZ  C   7  -0.00130     0.00038     0.02298    -0.00098    -0.00005     0.00003
  
  S  H   8   0.00009     0.00000     0.66995    -0.00497     0.00004    -0.00002
  
  S  C   9   0.00024    -0.00239     0.02075     0.00038    -0.00024     0.00023
 PX  C   9  -0.00345    -0.00180    -0.00169    -0.00100     0.00037     0.00005
 PY  C   9   0.00451    -0.00335    -0.01303    -0.00225    -0.00071     0.00036
 PZ  C   9   0.00185    -0.00008     0.01756     0.00050    -0.00058     0.00018
  
  S  H  10   0.00014    -0.00006    -0.00566    -0.00381     0.00002    -0.00002
  
  S  O  11  -0.00006     0.00005     0.00159    -0.00170    -0.00003     0.00003
 PX  O  11  -0.00000    -0.00004    -0.00205     0.00253     0.00005    -0.00005
 PY  O  11   0.00012    -0.00009    -0.00265     0.00526    -0.00001    -0.00001
 PZ  O  11   0.00002     0.00009     0.00037    -0.00284    -0.00000    -0.00002
  
  S  C  12   0.00003     0.00001    -0.00062    -0.00042     0.00002    -0.00003
 PX  C  12  -0.00000     0.00003    -0.00153    -0.00015     0.00003    -0.00005
 PY  C  12  -0.00000    -0.00000     0.00036     0.00011    -0.00002     0.00002
 PZ  C  12   0.00008     0.00002    -0.00235    -0.00037     0.00005    -0.00008
  
  S  H  13   0.00002     0.00000    -0.00009     0.00032    -0.00001     0.00000
  
  S  H  14  -0.00001     0.00001     0.00012    -0.00064     0.00001    -0.00001
  
  S  H  15  -0.00004     0.00002    -0.00040     0.00049     0.00001    -0.00001
  
  S  N  16  -0.00214     0.00505    -0.00165     0.00128    -0.00027    -0.00006
 PX  N  16  -0.00305     0.00281     0.00298    -0.00087    -0.00032    -0.00001
 PY  N  16   0.00139    -0.00189     0.00456    -0.00175     0.00014     0.00001
 PZ  N  16  -0.00425     0.00594     0.00001     0.00049    -0.00121     0.00052
  
  S  C  17   0.01980     0.02001    -0.00068    -0.00059    -0.00268     0.00098
 PX  C  17   0.01144     0.02645     0.00289     0.00053    -0.00442     0.00178
 PY  C  17  -0.01895    -0.00815     0.00238    -0.00025    -0.00352     0.00195
 PZ  C  17  -0.00306     0.01502    -0.00372     0.00100     0.00231    -0.00168
  
  S  C  18   0.00016    -0.42291    -0.00022     0.00019     0.01527    -0.00375
 PX  C  18   0.00205     0.36023    -0.00055     0.00005    -0.01246     0.00284
 PY  C  18  -0.00010    -0.45605    -0.00027    -0.00016     0.01594    -0.00082
 PZ  C  18   0.00066     0.00564     0.00136    -0.00022    -0.00549    -0.00131
  
  S  C  19  -0.01587    -0.01691     0.00046     0.00003     0.00162    -0.00043
 PX  C  19   0.01036     0.01808    -0.00114     0.00018    -0.00193    -0.00059
 PY  C  19  -0.02792    -0.01242    -0.00014     0.00014     0.00098    -0.00091
 PZ  C  19  -0.00660     0.00480     0.00123    -0.00021     0.00019     0.00105
[...]
 PZ  C  12  -0.00042    -0.00009     0.00034    -0.00004     0.00243    -0.00242
  
  S  H  13  -0.00007    -0.00005    -0.00015    -0.00001     0.00024     0.00011
  
  S  H  14   0.00006     0.00002     0.00003    -0.00002     0.00014    -0.00025
  
  S  H  15   0.00001     0.00003     0.00020     0.00004    -0.00071    -0.00029
  
  S  N  16   0.00003     0.00099    -0.00189    -0.00192     0.80433     0.00746
 PX  N  16   0.00067     0.00042    -0.00178    -0.00031     0.00566     0.00098
 PY  N  16  -0.00129    -0.00028     0.00609     0.00250     0.41878    -0.00877
 PZ  N  16   0.00021    -0.00370     0.00159    -0.00033    -0.35254     0.00235
  
  S  C  17   0.00033     0.01069    -0.01008     0.00097    -0.00138    -0.00407
 PX  C  17   0.00328    -0.00908    -0.01006    -0.00063     0.04016     0.00663
 PY  C  17   0.00184    -0.00127     0.00523     0.00070     0.09054     0.00296
 PZ  C  17  -0.00436     0.03059     0.00058    -0.00250    -0.14126     0.00436
  
  S  C  18  -0.00017    -0.00936     0.00245    -0.00571    -0.00846     0.00554
 PX  C  18   0.00056     0.02349    -0.00133     0.00320    -0.01900    -0.00163
 PY  C  18   0.00035     0.02001    -0.00208    -0.00475    -0.01038     0.00503
 PZ  C  18  -0.00050    -0.01857    -0.00085    -0.00081     0.04524     0.00051
  
  S  C  19  -0.00555    -0.00274    -0.00906     0.00003     0.02259     0.00049
 PX  C  19   0.00018    -0.00077    -0.02480    -0.00016    -0.04042    -0.00005
 PY  C  19   0.00362    -0.00452     0.01037    -0.00002     0.00251     0.00055
 PZ  C  19   0.00601     0.00642    -0.01591     0.00019     0.04134     0.00011
  
  S  C  20  -0.00011    -0.00629    -0.00048     0.00089     0.00179    -0.00236
 PX  C  20  -0.00148    -0.01612     0.00041    -0.00111    -0.01160     0.00302
 PY  C  20  -0.00104    -0.01269     0.00133    -0.00055    -0.00747     0.00091
 PZ  C  20   0.00292     0.02966    -0.00211    -0.00133     0.01695     0.00003
  
  S  C  21   0.00051    -0.00063     0.01613    -0.00009    -0.00286    -0.00035
 PX  C  21   0.00230     0.01069    -0.01956    -0.00018    -0.00627     0.00016
 PY  C  21   0.00187     0.00682     0.00117    -0.00026    -0.00388     0.00007
 PZ  C  21  -0.00442    -0.01736    -0.00484     0.00017     0.01610     0.00083
  
  S  C  22  -0.00033     0.00212    -0.00321    -0.00023    -0.00074     0.00035
 PX  C  22   0.00003    -0.00090     0.00003     0.00020     0.01883    -0.00051
 PY  C  22   0.00037     0.00204     0.00402    -0.00040     0.01297     0.00045
 PZ  C  22   0.00030    -0.00186     0.00114     0.00000    -0.03187     0.00035
  
  S  H  23  -0.00032    -0.00002     0.00103    -0.00004     0.00342     0.00028
  
  S  H  24   0.00010    -0.00043     0.00258     0.00020     0.00003    -0.00035
  
  S  H  25  -0.00003     0.00475    -0.00000     0.00051    -0.00092     0.00020
  
  S  C  26   0.00010     0.39399    -0.00089    -0.00206    -0.00004     0.01230
 PX  C  26   0.00005     0.33514    -0.00067    -0.00988     0.00045    -0.00866
 PY  C  26  -0.00012     0.44468     0.00121    -0.01923     0.00097     0.01468
 PZ  C  26   0.00005    -0.27732    -0.00006     0.01773     0.00232     0.03718
  
  S  C  27   0.00005    -0.01015    -0.00051     0.37004    -0.01116    -0.37178
 PX  C  27   0.00002     0.00509     0.00005    -0.38233     0.00123    -0.10643
 PY  C  27  -0.00002     0.01347     0.00016    -0.45307     0.00028     0.16849
 PZ  C  27  -0.00007    -0.00977     0.00037     0.30247     0.01241     0.64699
  
  S  H  28  -0.00003    -0.00157     0.00039     0.01934     0.02292    -0.63212
  
  S  H  29  -0.00004    -0.00344     0.00028     0.00519     0.00584    -0.00615
  
  S  H  30   0.00002     0.02413     0.00014     0.64658     0.00077    -0.01668
  
  S  C  31  -0.00001    -0.01047     0.00010    -0.00837    -0.00347    -0.01693
 PX  C  31  -0.00001     0.00854     0.00005    -0.00182    -0.00084    -0.00825
 PY  C  31  -0.00002     0.01512    -0.00003     0.00414     0.00165     0.00732
 PZ  C  31  -0.00003    -0.00203    -0.00017     0.00392     0.00489     0.02434
  
  S  H  32   0.00002    -0.00204    -0.00015     0.00067     0.00111     0.00012
  
  S  H  33  -0.00000    -0.00413     0.00002     0.00456    -0.00027     0.00523
  
  S  H  34  -0.00001     0.02367     0.00007     0.00389    -0.00040    -0.00060
  
  S  H  35  -0.00009     0.67180     0.00025     0.02472     0.00587     0.00298
  
  S  C  36   0.36996    -0.00046    -0.01055    -0.00000    -0.00268    -0.00010
 PX  C  36  -0.50883    -0.00004    -0.01824    -0.00000    -0.00013     0.00002
 PY  C  36   0.14616    -0.00080    -0.00152    -0.00000    -0.00332    -0.00008
 PZ  C  36   0.40059     0.00065    -0.00980     0.00004     0.00189    -0.00001
  
  S  C  37  -0.01045     0.00104     0.40737    -0.00024     0.00064     0.00073
 PX  C  37  -0.02714     0.00034    -0.51607     0.00026    -0.00300    -0.00060
 PY  C  37   0.00946     0.00102     0.03194    -0.00004    -0.00034     0.00039
 PZ  C  37   0.02425     0.00101    -0.36794     0.00029     0.00098    -0.00024
  
  S  H  38   0.64746    -0.00010    -0.00199    -0.00002    -0.00054     0.00001
  
  S  H  39   0.00860    -0.00010     0.02634    -0.00005     0.00026     0.00011
  
  S  H  40   0.00961     0.00023    -0.00466     0.00003     0.00105     0.00001
  
  S  C  41   0.01552     0.00003    -0.01083     0.00004     0.00333    -0.00005
 PX  C  41  -0.01974    -0.00028    -0.01483    -0.00005    -0.00458     0.00007
 PY  C  41   0.00554     0.00019     0.00065    -0.00000     0.00106    -0.00001
 PZ  C  41   0.01455     0.00006    -0.01449     0.00006     0.00376    -0.00010
  
  S  H  42  -0.00169     0.00041     0.65296     0.00048    -0.00139    -0.00084
  
  S  H  43   0.00005    -0.00002     0.02687    -0.00004     0.00080     0.00010
  
  S  H  44  -0.00357    -0.00006    -0.00201     0.00003     0.00086    -0.00005
  
  S  H  45   0.00017     0.00015    -0.00430     0.00001    -0.00142     0.00001




    ROOT NO.   49          50          51          52          53          54

            -8.26434    -6.99895    -6.94864    -6.82945    -6.82019    -6.80289
  
  
  S  C   1  -0.00046     0.00670     0.00060    -0.00084     0.00060    -0.00083
 PX  C   1  -0.08605     0.46654    -0.02981    -0.00564     0.00457    -0.00543
 PY  C   1   0.07638    -0.39829     0.02701     0.00321    -0.00264     0.00295
 PZ  C   1   0.04976    -0.26223     0.01667     0.00239    -0.00203     0.00234
  
  S  C   2  -0.00143     0.01348    -0.00765    -0.00194     0.00174    -0.00187
 PX  C   2   0.09227     0.45822    -0.02412    -0.00623     0.00555    -0.00614
 PY  C   2  -0.08331    -0.42077     0.01833     0.00309    -0.00278     0.00282
 PZ  C   2  -0.06152    -0.29093     0.00479     0.00124    -0.00105     0.00121
  
  S  C   3   0.00059    -0.00094     0.00010    -0.00074     0.00053    -0.00069
 PX  C   3   0.00671     0.05506     0.04119     0.00756    -0.00658     0.00711
 PY  C   3  -0.00524    -0.05044    -0.03739    -0.00730     0.00635    -0.00700
 PZ  C   3  -0.00423    -0.03079    -0.02364    -0.00521     0.00440    -0.00484
  
  S  H   4  -0.00076     0.00130    -0.00082    -0.00001     0.00005    -0.00002
  
  S  C   5   0.00007    -0.00048    -0.00246    -0.00101     0.00115    -0.00142
 PX  C   5   0.03449    -0.10287    -0.02845    -0.00605     0.00480    -0.00552
 PY  C   5  -0.03225     0.09607     0.02366     0.00319    -0.00186     0.00218
 PZ  C   5  -0.02010     0.06012     0.01436     0.00185    -0.00140     0.00148
  
  S  H   6  -0.00038     0.00086    -0.00013    -0.00014     0.00016    -0.00017
  
  S  C   7   0.00032    -0.00100     0.00823     0.00291    -0.00351     0.00430
 PX  C   7  -0.01849    -0.00525    -0.05334    -0.00842     0.00722    -0.00854
 PY  C   7   0.01805     0.00454     0.05564     0.01590    -0.01305     0.01505
 PZ  C   7   0.01087     0.00419     0.02856    -0.00341     0.00143    -0.00233
  
  S  H   8   0.00012     0.00008     0.00120     0.00193    -0.00162     0.00184
  
  S  C   9   0.00204    -0.00308    -0.01683    -0.01834     0.01318    -0.01920
 PX  C   9  -0.02698     0.13722     0.24606     0.00544    -0.00315     0.00264
 PY  C   9   0.02727    -0.14279    -0.27125    -0.03912     0.02849    -0.03746
 PZ  C   9   0.01601    -0.09437    -0.21234    -0.02540     0.01797    -0.02400
  
  S  H  10  -0.00022     0.00085     0.00083     0.00673    -0.00217     0.00288
  
  S  O  11   0.00106     0.00009    -0.00018     0.00020    -0.00019     0.00022
 PX  O  11   0.64881     0.00473     0.00306     0.00042    -0.00040     0.00039
 PY  O  11  -0.57917    -0.00436    -0.00192    -0.00139     0.00132    -0.00141
 PZ  O  11  -0.44213    -0.00306    -0.00131    -0.00013     0.00022    -0.00014
  
  S  C  12  -0.00017     0.00125    -0.00026    -0.00004     0.00008    -0.00006
 PX  C  12   0.03971    -0.00934     0.00119     0.00017    -0.00009     0.00013
 PY  C  12  -0.03267     0.00505    -0.00067    -0.00008     0.00004    -0.00007
 PZ  C  12  -0.02656     0.00497    -0.00098    -0.00019     0.00024    -0.00022
  
  S  H  13  -0.04998     0.00850    -0.00117    -0.00036     0.00034    -0.00035
  
  S  H  14   0.00859    -0.00062     0.00032     0.00022    -0.00020     0.00022
  
  S  H  15   0.04194    -0.01134     0.00116     0.00019    -0.00018     0.00018
  
  S  N  16  -0.00154     0.00254    -0.04741     0.00704    -0.00640     0.00763
 PX  N  16   0.00596    -0.02947     0.57106    -0.00342    -0.00174    -0.00347
 PY  N  16  -0.00675     0.03587    -0.38217    -0.00068     0.00026    -0.00363
 PZ  N  16  -0.00529     0.03040    -0.51444    -0.03477     0.02804    -0.03504
  
  S  C  17   0.00144    -0.00506     0.01801    -0.00532     0.00152    -0.00031
 PX  C  17   0.00254    -0.00836     0.11788    -0.17639     0.09331    -0.17135
 PY  C  17   0.00091    -0.00227    -0.00190    -0.12937     0.07251    -0.13060
 PZ  C  17  -0.00770     0.02626    -0.20263     0.29652    -0.16282     0.30163
  
  S  C  18   0.00087    -0.00461     0.02372     0.00219    -0.00151     0.01356
 PX  C  18  -0.00164     0.00620    -0.02260    -0.02006     0.03362    -0.32986
 PY  C  18  -0.00214     0.00908    -0.04058    -0.01674     0.02752    -0.26301
 PZ  C  18   0.00199    -0.00570     0.02711     0.03100    -0.05684     0.60524
  
  S  C  19  -0.00129     0.00629    -0.02786     0.00810     0.00081    -0.00246
 PX  C  19  -0.00026    -0.00081    -0.00341    -0.35760     0.03029    -0.01482
 PY  C  19  -0.00260     0.01074    -0.04266    -0.28920     0.02759    -0.01700
 PZ  C  19   0.00232    -0.00859     0.03328     0.58411    -0.05114     0.02964
  
  S  C  20  -0.00006     0.00055    -0.00437     0.00023     0.00157     0.00259
 PX  C  20  -0.00065     0.00148    -0.00679     0.08754    -0.19451    -0.24089
 PY  C  20  -0.00052     0.00142    -0.00900     0.06077    -0.13618    -0.16883
 PZ  C  20   0.00128    -0.00402     0.02236    -0.15941     0.35301     0.43058
  
  S  C  21   0.00037    -0.00153     0.00422    -0.00051    -0.00254    -0.00027
 PX  C  21  -0.00134     0.00453    -0.01533    -0.24907    -0.20773     0.09383
 PY  C  21  -0.00077     0.00221    -0.01129    -0.17609    -0.14533     0.06454
 PZ  C  21   0.00128    -0.00329     0.01842     0.41235     0.34297    -0.15467
  
  S  C  22   0.00004    -0.00012     0.00032    -0.00070    -0.00049     0.00060
 PX  C  22   0.00146    -0.00447     0.01779     0.00508    -0.35902     0.00349
 PY  C  22   0.00090    -0.00263     0.01048     0.00312    -0.23996     0.00172
 PZ  C  22  -0.00260     0.00793    -0.03133    -0.00735     0.63074    -0.00725
  
  S  H  23  -0.00036     0.00160    -0.00456    -0.00039     0.00090    -0.00060
  
  S  H  24   0.00004    -0.00013    -0.00022     0.00086    -0.00025    -0.00060
  
  S  H  25   0.00020    -0.00099     0.00388     0.00020    -0.00065     0.00069
  
  S  C  26   0.00006    -0.00059     0.00372     0.00008    -0.00154     0.00741
 PX  C  26   0.00004     0.00057    -0.00090     0.00030     0.00284    -0.02242
 PY  C  26  -0.00004    -0.00020    -0.00133     0.00048     0.00158    -0.00689
 PZ  C  26  -0.00008     0.00016     0.00106    -0.00057    -0.00692     0.04593
  
  S  C  27   0.00144    -0.00057     0.00825    -0.00006     0.00008    -0.00127
 PX  C  27   0.00019     0.00028    -0.00758    -0.00036     0.00031    -0.00101
 PY  C  27  -0.00047     0.00027     0.00238     0.00006    -0.00004     0.00037
 PZ  C  27  -0.00214     0.00193    -0.00428    -0.00004     0.00020    -0.00222
  
  S  H  28  -0.00313    -0.00017    -0.01368     0.00006    -0.00023     0.00004
  
  S  H  29  -0.00041     0.00151    -0.00768    -0.00015     0.00009    -0.00018
  
  S  H  30   0.00012    -0.00122    -0.00847     0.00001     0.00010     0.00065
  
  S  C  31  -0.00007     0.00052    -0.00251    -0.00031     0.00124    -0.01596
 PX  C  31  -0.00003     0.00022    -0.00097     0.00057    -0.00111    -0.00059
 PY  C  31   0.00007    -0.00035     0.00133     0.00135    -0.00168     0.00201
 PZ  C  31   0.00008    -0.00071     0.00342     0.00268    -0.00573     0.01770
  
  S  H  32   0.00009    -0.00021     0.00091    -0.00057     0.00083     0.00592
  
  S  H  33  -0.00005    -0.00002     0.00007    -0.00044     0.00113     0.00168
  
  S  H  34   0.00001     0.00000    -0.00023     0.00032     0.00010     0.00184
  
  S  H  35   0.00038    -0.00137     0.00492     0.00320    -0.00503     0.01472
  
  S  C  36  -0.00003     0.00124    -0.00133    -0.01623     0.00194    -0.00089
 PX  C  36  -0.00046     0.00007    -0.00095    -0.00221    -0.00035     0.00038
 PY  C  36  -0.00025     0.00152    -0.00239    -0.01160     0.00386    -0.00258
 PZ  C  36   0.00056    -0.00102     0.00306     0.01577    -0.00421     0.00187
  
  S  C  37   0.00100    -0.00334    -0.01023    -0.00136     0.00106     0.00009
 PX  C  37  -0.00138     0.00457     0.00886    -0.03147     0.00449     0.00066
 PY  C  37  -0.00024     0.00040    -0.00292    -0.02705     0.00486     0.00018
 PZ  C  37  -0.00094     0.00300     0.00992     0.04782    -0.00662     0.00046
  
  S  H  38  -0.00008     0.00009    -0.00111     0.00157     0.00031     0.00001
  
  S  H  39  -0.00003    -0.00044    -0.00219     0.00091     0.00090    -0.00043
  
  S  H  40   0.00001    -0.00018     0.00147     0.00594     0.00016     0.00007
  
  S  C  41  -0.00008    -0.00012     0.00296     0.01606    -0.00123     0.00036
 PX  C  41   0.00018    -0.00006    -0.00363    -0.01532     0.00527    -0.00245
 PY  C  41  -0.00002    -0.00008     0.00060    -0.00195    -0.00049     0.00103
 PZ  C  41  -0.00009     0.00002     0.00380     0.00906    -0.00193     0.00073
  
  S  H  42  -0.00057     0.00463     0.01807     0.00190    -0.00129     0.00121
  
  S  H  43   0.00023    -0.00051    -0.00119    -0.00140    -0.00090     0.00023
  
  S  H  44   0.00003     0.00005     0.00149    -0.00199    -0.00031    -0.00027
  
  S  H  45  -0.00015     0.00046    -0.00073    -0.00617    -0.00074     0.00051




    ROOT NO.   55          56

            -6.28846    -6.27375
  
  
  S  C   1  -0.00037    -0.00091
 PX  C   1   0.17804    -0.10010
 PY  C   1  -0.15538     0.08577
 PZ  C   1  -0.10151     0.05635
  
  S  C   2  -0.00155     0.00331
 PX  C   2  -0.11015     0.08033
 PY  C   2   0.09623    -0.06977
 PZ  C   2   0.06703    -0.04654
  
  S  C   3  -0.00027    -0.00001
 PX  C   3   0.52221    -0.06341
 PY  C   3  -0.47724     0.05807
 PZ  C   3  -0.29998     0.03627
  
  S  H   4   0.00057    -0.00015
  
  S  C   5   0.00123     0.00204
 PX  C   5   0.35776     0.27205
 PY  C   5  -0.33431    -0.25415
 PZ  C   5  -0.20956    -0.15883
  
  S  H   6   0.00037    -0.00074
  
  S  C   7   0.00129    -0.00326
 PX  C   7  -0.01293     0.52066
 PY  C   7   0.01276    -0.51101
 PZ  C   7   0.00694    -0.31643
  
  S  H   8   0.00016    -0.00027
  
  S  C   9   0.00264    -0.00875
 PX  C   9  -0.10583     0.24382
 PY  C   9   0.11214    -0.25067
 PZ  C   9   0.07324    -0.16685
  
  S  H  10  -0.00092    -0.00025
  
  S  O  11   0.00001     0.00008
 PX  O  11   0.00736    -0.00941
 PY  O  11  -0.00662     0.00814
 PZ  O  11  -0.00524     0.00676
  
  S  C  12   0.00013    -0.00007
 PX  C  12   0.00016     0.00097
 PY  C  12  -0.00060    -0.00032
 PZ  C  12  -0.00074     0.00003
  
  S  H  13  -0.00430     0.00334
  
  S  H  14   0.00061    -0.00057
  
  S  H  15   0.00341    -0.00231
  
  S  N  16  -0.00266     0.00348
 PX  N  16   0.02712    -0.04013
 PY  N  16  -0.03299     0.05191
 PZ  N  16  -0.02736     0.04272
  
  S  C  17   0.00472    -0.00816
 PX  C  17   0.00960    -0.01623
 PY  C  17   0.00337    -0.00453
 PZ  C  17  -0.02752     0.04567
  
  S  C  18   0.00462    -0.00690
 PX  C  18  -0.00658     0.00952
 PY  C  18  -0.00952     0.01387
 PZ  C  18   0.00627    -0.00938
  
  S  C  19  -0.00614     0.00932
 PX  C  19   0.00068    -0.00155
 PY  C  19  -0.01116     0.01604
 PZ  C  19   0.00903    -0.01267
  
  S  C  20  -0.00056     0.00080
 PX  C  20  -0.00175     0.00252
 PY  C  20  -0.00164     0.00245
 PZ  C  20   0.00464    -0.00660
  
  S  C  21   0.00147    -0.00226
 PX  C  21  -0.00502     0.00751
 PY  C  21  -0.00256     0.00404
 PZ  C  21   0.00421    -0.00677
  
  S  C  22   0.00011    -0.00008
 PX  C  22   0.00507    -0.00715
 PY  C  22   0.00297    -0.00426
 PZ  C  22  -0.00896     0.01258
  
  S  H  23  -0.00172     0.00242
  
  S  H  24   0.00013    -0.00021
  
  S  H  25   0.00106    -0.00144
  
  S  C  26   0.00058    -0.00091
 PX  C  26  -0.00051     0.00074
 PY  C  26   0.00023    -0.00020
 PZ  C  26  -0.00012     0.00013
  
  S  C  27   0.00084    -0.00071
 PX  C  27  -0.00030     0.00008
 PY  C  27  -0.00052    -0.00008
 PZ  C  27  -0.00211     0.00319
  
  S  H  28  -0.00015     0.00075
  
  S  H  29  -0.00158     0.00213
  
  S  H  30   0.00102    -0.00263
  
  S  C  31  -0.00057     0.00086
 PX  C  31  -0.00023     0.00031
 PY  C  31   0.00037    -0.00055
 PZ  C  31   0.00077    -0.00112
  
  S  H  32   0.00024    -0.00034
  
  S  H  33   0.00001    -0.00002
  
  S  H  34   0.00001    -0.00004
  
  S  H  35   0.00153    -0.00206
  
  S  C  36  -0.00126    -0.00185
 PX  C  36  -0.00012     0.00234
 PY  C  36  -0.00153     0.00258
 PZ  C  36   0.00136    -0.00489
  
  S  C  37   0.00270    -0.00909
 PX  C  37  -0.00337     0.00778
 PY  C  37  -0.00072     0.00125
 PZ  C  37  -0.00251     0.00853
  
  S  H  38  -0.00066     0.00974
  
  S  H  39   0.00034     0.00084
  
  S  H  40   0.00043     0.00062
  
  S  C  41   0.00005     0.00076
 PX  C  41   0.00013    -0.00095
 PY  C  41   0.00008     0.00007
 PZ  C  41  -0.00008     0.00133
  
  S  H  42  -0.00316     0.01760
  
  S  H  43   0.00047    -0.00112
  
  S  H  44  -0.00001     0.00016
  
  S  H  45  -0.00047     0.00084

          BONDING CONTRIBUTION OF EACH M.O.

  0.0329  1.8462  1.9752  1.9794  1.9108  1.9619  1.9951  1.9960  1.9966  1.9964
  1.9951  1.9785  1.9644  1.9759  1.9753  1.9984  2.0047  1.9581  1.9595  1.9727
  1.9871  1.9697  1.9738  1.9737  1.9728  1.9853  1.9794  1.9719  1.9673  1.9643
  1.9674  1.9614  1.9635  1.9657  1.9839  1.9814  1.9762  1.9527  1.9933  1.9553
  1.9595  1.9767  1.9518  1.9871  1.9603  1.9469  0.3147  1.9239  0.2727  1.8623
  1.3251  1.9202  1.8199  1.9302  1.7574  1.6900 -2.0470 -2.0987 -2.2198 -2.1610
 -1.9269 -2.0666 -2.1298 -1.9463 -1.9687 -1.9644 -1.9569 -1.9519 -1.9988 -1.9963
 -2.0174 -1.9804 -1.9803 -1.9847 -1.9628 -1.9802 -2.0057 -1.9644 -1.9847 -1.9994
 -1.9877 -1.9628 -1.9613 -1.9643 -1.9736 -1.9646 -1.9658 -1.9703 -2.0324 -1.9995
 -1.9977 -1.9693 -2.0053 -1.9847 -1.9879 -1.9983 -2.0058 -1.9611 -1.9552 -1.9594
 -1.9660 -1.9746 -1.9728 -1.9713 -1.9734 -1.9572 -1.9105 -1.8921

 **********************
 *                    *
 * JOB ENDED NORMALLY *
 *                    *
 **********************



 TOTAL JOB TIME:             3.37 SECONDS

 == MOPAC DONE ==
