 *******************************************************************************
 ** Site#: 14762        For non-commercial use only    Version 17.165L 64BITS **
 *******************************************************************************
 ** Cite this program as: MOPAC2016, Version: 17.165L, James J. P. Stewart,   **
 ** Stewart Computational Chemistry, web: HTTP://OpenMOPAC.net. Days left: 226**
 *******************************************************************************
 **                                                                           **
 **                                MOPAC2016                                  **
 **                                                                           **
 *******************************************************************************

                              PM6 CALCULATION RESULTS


 *******************************************************************************
 *  CALCULATION DONE:                                Tue Oct 31 21:12:31 2017  *
 *  PM6        - The PM6 Hamiltonian to be used
 *
 *
 *
 *                 CHARGE ON SYSTEM =    +1
 *
 *
 *
 *  NOSYM      - POINT-GROUP SYMMETRY SET TO C1
 *  T=         - A TIME OF     12.0 MINUTES REQUESTED
 *  DUMP=N     - RESTART FILE WRITTEN EVERY  7200.000 SECONDS
 *  GNORM=     - EXIT WHEN GRADIENT NORM DROPS BELOW   5.00    
 *  AUX        - OUTPUT AUXILIARY INFORMATION
 *  LOCALIZE   - LOCALIZED ORBITALS TO BE PRINTED
 *******************************************************************************
 PM6 NOSYM T=12M GNORM=5.000000 CHARGE=1 AUX LOCALIZE
   MOPAC run
   ready to go?
   ATOM   CHEMICAL          X               Y               Z
  NUMBER   SYMBOL      (ANGSTROMS)     (ANGSTROMS)     (ANGSTROMS)
 
     1       C         -1.10295600  *   0.85214100  *  -1.91032000  *
     2       C         -0.21628100  *   0.50658500  *  -0.90225400  *
     3       C         -2.41140100  *   1.18583400  *  -1.53187200  *
     4       H         -0.81950200  *   0.86890200  *  -2.96161800  *
     5       C         -2.79066200  *   1.17865000  *  -0.18382100  *
     6       H         -3.13852700  *   1.45506400  *  -2.29839400  *
     7       C         -1.88599100  *   0.83695900  *   0.82201000  *
     8       H         -3.81352300  *   1.45023700  *   0.08952800  *
     9       C         -0.57031400  *   0.46997300  *   0.48291600  *
    10       H         -2.19485700  *   0.84771500  *   1.86924900  *
    11       O          1.16550200  *   0.15651800  *  -1.12382300  *
    12       C          1.55082100  *  -0.13362700  *  -2.51009600  *
    13       H          0.92899400  *  -0.96989900  *  -2.86820900  *
    14       H          2.61163600  *  -0.43261400  *  -2.45282300  *
    15       H          1.42307100  *   0.77676600  *  -3.11010800  *
    16       N          0.51872100  *   0.22615800  *   1.31589000  *
    17       C          0.68229300  *  -0.26371500  *   2.63925500  *
    18       C          1.90396400  *   0.21994000  *   3.23780300  *
    19       C         -0.06641000  *  -1.30480800  *   3.24822200  *
    20       C          2.40742400  *  -0.50240200  *   4.34236600  *
    21       C          0.44475400  *  -1.90192300  *   4.40404500  *
    22       C          1.69610300  *  -1.54153500  *   4.92138300  *
    23       H         -0.12914000  *  -2.68878000  *   4.90259200  *
    24       H          2.09819900  *  -2.07219600  *   5.78544800  *
    25       H          3.36959500  *  -0.21424200  *   4.77635300  *
    26       C          2.62119300  *   1.56864600  *   2.94980500  *
    27       C          1.88200000  *   2.59805000  *   2.06810500  *
    28       H          1.79129400  *   2.37646200  *   0.96181400  *
    29       H          2.41275500  *   3.56974700  *   2.09096300  *
    30       H          0.86272600  *   2.79430400  *   2.44504900  *
    31       C          2.91599700  *   2.27346900  *   4.28590500  *
    32       H          3.37975500  *   3.25904600  *   4.13998900  *
    33       H          3.59954700  *   1.70129200  *   4.92588400  *
    34       H          1.99448500  *   2.43482300  *   4.86297700  *
    35       H          3.64802400  *   1.35609400  *   2.47382800  *
    36       C         -2.53274700  *  -1.46703200  *   3.62842300  *
    37       C         -1.37355900  *  -1.83747200  *   2.69218500  *
    38       H         -2.55969300  *  -0.39510700  *   3.84134000  *
    39       H         -2.46574600  *  -1.98367500  *   4.59361900  *
    40       H         -3.49869900  *  -1.74464000  *   3.19087700  *
    41       C         -1.29344800  *  -3.35550100  *   2.48157900  *
    42       H         -1.58224700  *  -1.39215500  *   1.69000500  *
    43       H         -1.18091900  *  -3.90716900  *   3.42214700  *
    44       H         -0.44996400  *  -3.62870800  *   1.83639200  *
    45       H         -2.20656900  *  -3.73252900  *   2.00634800  *
    46      Zr          2.49632800  *   0.23252500  *   0.52682100  *
    47       C          3.54460700  *  -1.75157900  *   0.25017600  *
    48       H          4.51891900  *  -1.66421300  *  -0.23880700  *
    49       H          3.02963400  *  -2.60339100  *  -0.19215700  *
    50       H          3.70066300  *  -1.97573500  *   1.32650500  *
    51       C          3.96786600  *   1.66227700  *  -0.42054200  *
    52       H          3.89766300  *   2.69079900  *  -0.74851100  *
    53       H          4.13892500  *   1.01850000  *  -1.31072900  *
    54       H          4.85477100  *   1.56960200  *   0.23007200  *
 


          CARTESIAN COORDINATES 

    NO.       ATOM         X         Y         Z

     1         C       -1.1030    0.8521   -1.9103
     2         C       -0.2163    0.5066   -0.9023
     3         C       -2.4114    1.1858   -1.5319
     4         H       -0.8195    0.8689   -2.9616
     5         C       -2.7907    1.1786   -0.1838
     6         H       -3.1385    1.4551   -2.2984
     7         C       -1.8860    0.8370    0.8220
     8         H       -3.8135    1.4502    0.0895
     9         C       -0.5703    0.4700    0.4829
    10         H       -2.1949    0.8477    1.8692
    11         O        1.1655    0.1565   -1.1238
    12         C        1.5508   -0.1336   -2.5101
    13         H        0.9290   -0.9699   -2.8682
    14         H        2.6116   -0.4326   -2.4528
    15         H        1.4231    0.7768   -3.1101
    16         N        0.5187    0.2262    1.3159
    17         C        0.6823   -0.2637    2.6393
    18         C        1.9040    0.2199    3.2378
    19         C       -0.0664   -1.3048    3.2482
    20         C        2.4074   -0.5024    4.3424
    21         C        0.4448   -1.9019    4.4040
    22         C        1.6961   -1.5415    4.9214
    23         H       -0.1291   -2.6888    4.9026
    24         H        2.0982   -2.0722    5.7854
    25         H        3.3696   -0.2142    4.7764
    26         C        2.6212    1.5686    2.9498
    27         C        1.8820    2.5980    2.0681
    28         H        1.7913    2.3765    0.9618
    29         H        2.4128    3.5697    2.0910
    30         H        0.8627    2.7943    2.4450
    31         C        2.9160    2.2735    4.2859
    32         H        3.3798    3.2590    4.1400
    33         H        3.5995    1.7013    4.9259
    34         H        1.9945    2.4348    4.8630
    35         H        3.6480    1.3561    2.4738
    36         C       -2.5327   -1.4670    3.6284
    37         C       -1.3736   -1.8375    2.6922
    38         H       -2.5597   -0.3951    3.8413
    39         H       -2.4657   -1.9837    4.5936
    40         H       -3.4987   -1.7446    3.1909
    41         C       -1.2934   -3.3555    2.4816
    42         H       -1.5822   -1.3922    1.6900
    43         H       -1.1809   -3.9072    3.4221
    44         H       -0.4500   -3.6287    1.8364
    45         H       -2.2066   -3.7325    2.0063
    46        Zr        2.4963    0.2325    0.5268
    47         C        3.5446   -1.7516    0.2502
    48         H        4.5189   -1.6642   -0.2388
    49         H        3.0296   -2.6034   -0.1922
    50         H        3.7007   -1.9757    1.3265
    51         C        3.9679    1.6623   -0.4205
    52         H        3.8977    2.6908   -0.7485
    53         H        4.1389    1.0185   -1.3107
    54         H        4.8548    1.5696    0.2301

 General Reference for PM6:
 "Optimization of Parameters for Semiempirical Methods V: Modification of NDDO Approximations
 and Application to 70 Elements", J. J. P. Stewart, J. Mol. Mod., 13, 1173-1213 (2007)
 URL: http://www.springerlink.com/content/ar33482301010477/fulltext.pdf

           Empirical Formula: C21 H30 N O Zr  =    54 atoms



      MOLECULAR POINT GROUP   :   C1  


      RHF CALCULATION, NO. OF DOUBLY OCCUPIED LEVELS = 64


          Geometry optimization using L-BFGS
 CYCLE:     1 TIME:   0.234 TIME LEFT: 11.99M  GRAD.:    82.380 HEAT:  109.4431
 CYCLE:     2 TIME:   0.117 TIME LEFT: 11.99M  GRAD.:    81.407 HEAT:  109.3755
 CYCLE:     3 TIME:   0.125 TIME LEFT: 11.99M  GRAD.:    18.313 HEAT:  106.0705
 CYCLE:     4 TIME:   0.133 TIME LEFT: 11.99M  GRAD.:    81.590 HEAT:  109.3771
 CYCLE:     5 TIME:   0.125 TIME LEFT: 11.99M  GRAD.:    18.563 HEAT:  106.0693
 CYCLE:     6 TIME:   0.117 TIME LEFT: 11.98M  GRAD.:    18.793 HEAT:  105.8222
 CYCLE:     7 TIME:   0.125 TIME LEFT: 11.98M  GRAD.:    13.456 HEAT:  105.6195
 CYCLE:     8 TIME:   0.117 TIME LEFT: 11.98M  GRAD.:    12.917 HEAT:  105.4095
 CYCLE:     9 TIME:   0.125 TIME LEFT: 11.98M  GRAD.:    19.785 HEAT:  105.2485
 CYCLE:    10 TIME:   0.125 TIME LEFT: 11.98M  GRAD.:    12.179 HEAT:  105.0923
 CYCLE:    11 TIME:   0.125 TIME LEFT: 11.97M  GRAD.:    13.779 HEAT:  104.8756
 CYCLE:    12 TIME:   0.117 TIME LEFT: 11.97M  GRAD.:    14.430 HEAT:  104.6630
 CYCLE:    13 TIME:   0.133 TIME LEFT: 11.97M  GRAD.:    30.026 HEAT:  104.5306
 CYCLE:    14 TIME:   0.117 TIME LEFT: 11.97M  GRAD.:    12.882 HEAT:  104.3000
 CYCLE:    15 TIME:   0.125 TIME LEFT: 11.97M  GRAD.:     7.988 HEAT:  104.2163
 CYCLE:    16 TIME:   0.117 TIME LEFT: 11.96M  GRAD.:     9.679 HEAT:  104.1134
 CYCLE:    17 TIME:   0.125 TIME LEFT: 11.96M  GRAD.:    10.964 HEAT:  104.0136
 CYCLE:    18 TIME:   0.117 TIME LEFT: 11.96M  GRAD.:    10.677 HEAT:  103.8634
 CYCLE:    19 TIME:   0.125 TIME LEFT: 11.96M  GRAD.:    14.897 HEAT:  103.7894
 CYCLE:    20 TIME:   0.125 TIME LEFT: 11.96M  GRAD.:     9.051 HEAT:  103.7175
 CYCLE:    21 TIME:   0.117 TIME LEFT: 11.95M  GRAD.:     8.420 HEAT:  103.6385
 CYCLE:    22 TIME:   0.125 TIME LEFT: 11.95M  GRAD.:     6.980 HEAT:  103.5792
 CYCLE:    23 TIME:   0.117 TIME LEFT: 11.95M  GRAD.:     8.893 HEAT:  103.4884
 CYCLE:    24 TIME:   0.125 TIME LEFT: 11.95M  GRAD.:    12.715 HEAT:  103.4536
 CYCLE:    25 TIME:   0.125 TIME LEFT: 11.94M  GRAD.:     6.866 HEAT:  103.4133
 CYCLE:    26 TIME:   0.117 TIME LEFT: 11.94M  GRAD.:     5.426 HEAT:  103.3675
 CYCLE:    27 TIME:   0.125 TIME LEFT: 11.94M  GRAD.:     5.177 HEAT:  103.3381
 CYCLE:    28 TIME:   0.125 TIME LEFT: 11.94M  GRAD.:     8.732 HEAT:  103.2663
 CYCLE:    29 TIME:   0.125 TIME LEFT: 11.94M  GRAD.:    10.681 HEAT:  103.2258
 CYCLE:    30 TIME:   0.125 TIME LEFT: 11.93M  GRAD.:     6.180 HEAT:  103.1831
 CYCLE:    31 TIME:   0.117 TIME LEFT: 11.93M  GRAD.:     5.287 HEAT:  103.1358
 CYCLE:    32 TIME:   0.125 TIME LEFT: 11.93M  GRAD.:     6.446 HEAT:  103.1032
 CYCLE:    33 TIME:   0.117 TIME LEFT: 11.93M  GRAD.:     7.627 HEAT:  103.0351
 CYCLE:    34 TIME:   0.117 TIME LEFT: 11.93M  GRAD.:    11.874 HEAT:  102.9727
 CYCLE:    35 TIME:   0.117 TIME LEFT: 11.92M  GRAD.:     8.646 HEAT:  102.8822
 CYCLE:    36 TIME:   0.125 TIME LEFT: 11.92M  GRAD.:     9.245 HEAT:  102.7721
 CYCLE:    37 TIME:   0.117 TIME LEFT: 11.92M  GRAD.:    10.603 HEAT:  102.6847
 CYCLE:    38 TIME:   0.133 TIME LEFT: 11.92M  GRAD.:     8.529 HEAT:  102.6002
 CYCLE:    39 TIME:   0.125 TIME LEFT: 11.92M  GRAD.:     8.452 HEAT:  102.4835
 CYCLE:    40 TIME:   0.125 TIME LEFT: 11.91M  GRAD.:    25.894 HEAT:  102.4236
 CYCLE:    41 TIME:   0.133 TIME LEFT: 11.91M  GRAD.:    10.275 HEAT:  102.2894
 CYCLE:    42 TIME:   0.148 TIME LEFT: 11.91M  GRAD.:     9.634 HEAT:  102.1935
 CYCLE:    43 TIME:   0.125 TIME LEFT: 11.91M  GRAD.:     9.738 HEAT:  102.0742
 CYCLE:    44 TIME:   0.125 TIME LEFT: 11.91M  GRAD.:    16.293 HEAT:  101.9200
 CYCLE:    45 TIME:   0.125 TIME LEFT: 11.90M  GRAD.:    11.003 HEAT:  101.7783
 CYCLE:    46 TIME:   0.148 TIME LEFT: 11.90M  GRAD.:     9.228 HEAT:  101.6930
 CYCLE:    47 TIME:   0.133 TIME LEFT: 11.90M  GRAD.:    13.367 HEAT:  101.5040
 CYCLE:    48 TIME:   0.125 TIME LEFT: 11.90M  GRAD.:    59.340 HEAT:  102.0490
 CYCLE:    49 TIME:   0.125 TIME LEFT: 11.89M  GRAD.:     8.699 HEAT:  101.2741
 CYCLE:    50 TIME:   0.133 TIME LEFT: 11.89M  GRAD.:     9.138 HEAT:  101.2021
 CYCLE:    51 TIME:   0.117 TIME LEFT: 11.89M  GRAD.:     9.493 HEAT:  101.0416
 CYCLE:    52 TIME:   0.125 TIME LEFT: 11.89M  GRAD.:    11.951 HEAT:  100.9608
 CYCLE:    53 TIME:   0.117 TIME LEFT: 11.89M  GRAD.:     7.460 HEAT:  100.8761
 CYCLE:    54 TIME:   0.117 TIME LEFT: 11.88M  GRAD.:     7.855 HEAT:  100.8018
 CYCLE:    55 TIME:   0.125 TIME LEFT: 11.88M  GRAD.:    12.571 HEAT:  100.7156
 CYCLE:    56 TIME:   0.125 TIME LEFT: 11.88M  GRAD.:    14.289 HEAT:  100.6102
 CYCLE:    57 TIME:   0.117 TIME LEFT: 11.88M  GRAD.:     9.723 HEAT:  100.5032
 CYCLE:    58 TIME:   0.117 TIME LEFT: 11.88M  GRAD.:     8.503 HEAT:  100.3826
 CYCLE:    59 TIME:   0.125 TIME LEFT: 11.87M  GRAD.:    14.330 HEAT:  100.2983
 CYCLE:    60 TIME:   0.125 TIME LEFT: 11.87M  GRAD.:    10.378 HEAT:  100.2021
 CYCLE:    61 TIME:   0.125 TIME LEFT: 11.87M  GRAD.:    10.800 HEAT:  100.0542
 CYCLE:    62 TIME:   0.133 TIME LEFT: 11.87M  GRAD.:    11.520 HEAT:  99.94522
 CYCLE:    63 TIME:   0.117 TIME LEFT: 11.87M  GRAD.:     8.745 HEAT:  99.85919
 CYCLE:    64 TIME:   0.117 TIME LEFT: 11.86M  GRAD.:     9.003 HEAT:  99.76193
 CYCLE:    65 TIME:   0.141 TIME LEFT: 11.86M  GRAD.:     9.972 HEAT:  99.65487
 CYCLE:    66 TIME:   0.133 TIME LEFT: 11.86M  GRAD.:    16.126 HEAT:  99.49841
 CYCLE:    67 TIME:   0.133 TIME LEFT: 11.86M  GRAD.:    15.728 HEAT:  99.38564
 CYCLE:    68 TIME:   0.141 TIME LEFT: 11.85M  GRAD.:     8.162 HEAT:  99.30011
 CYCLE:    69 TIME:   0.141 TIME LEFT: 11.85M  GRAD.:     9.722 HEAT:  99.22290
 CYCLE:    70 TIME:   0.133 TIME LEFT: 11.85M  GRAD.:    10.096 HEAT:  99.13388
 CYCLE:    71 TIME:   0.125 TIME LEFT: 11.85M  GRAD.:    14.226 HEAT:  98.95570
 CYCLE:    72 TIME:   0.133 TIME LEFT: 11.85M  GRAD.:    21.533 HEAT:  98.88044
 CYCLE:    73 TIME:   0.125 TIME LEFT: 11.84M  GRAD.:     9.713 HEAT:  98.76375
 CYCLE:    74 TIME:   0.125 TIME LEFT: 11.84M  GRAD.:     9.624 HEAT:  98.65998
 CYCLE:    75 TIME:   0.125 TIME LEFT: 11.84M  GRAD.:    10.694 HEAT:  98.53997
 CYCLE:    76 TIME:   0.133 TIME LEFT: 11.84M  GRAD.:    14.512 HEAT:  98.36331
 CYCLE:    77 TIME:   0.125 TIME LEFT: 11.84M  GRAD.:    17.528 HEAT:  98.14535
 CYCLE:    78 TIME:   0.133 TIME LEFT: 11.83M  GRAD.:    13.742 HEAT:  97.91594
 CYCLE:    79 TIME:   0.125 TIME LEFT: 11.83M  GRAD.:    11.549 HEAT:  97.69586
 CYCLE:    80 TIME:   0.125 TIME LEFT: 11.83M  GRAD.:    15.640 HEAT:  97.49123
 CYCLE:    81 TIME:   0.125 TIME LEFT: 11.83M  GRAD.:    17.193 HEAT:  97.29673
 CYCLE:    82 TIME:   0.133 TIME LEFT: 11.82M  GRAD.:    11.505 HEAT:  97.13789
 CYCLE:    83 TIME:   0.125 TIME LEFT: 11.82M  GRAD.:    11.328 HEAT:  96.98803
 CYCLE:    84 TIME:   0.125 TIME LEFT: 11.82M  GRAD.:    12.737 HEAT:  96.88467
 CYCLE:    85 TIME:   0.133 TIME LEFT: 11.82M  GRAD.:    28.082 HEAT:  96.86741
 CYCLE:    86 TIME:   0.117 TIME LEFT: 11.82M  GRAD.:     7.911 HEAT:  96.67437
 CYCLE:    87 TIME:   0.117 TIME LEFT: 11.81M  GRAD.:     6.043 HEAT:  96.62670
 CYCLE:    88 TIME:   0.117 TIME LEFT: 11.81M  GRAD.:     7.609 HEAT:  96.55039
 CYCLE:    89 TIME:   0.125 TIME LEFT: 11.81M  GRAD.:    17.533 HEAT:  96.47131
 CYCLE:    90 TIME:   0.117 TIME LEFT: 11.81M  GRAD.:     7.458 HEAT:  96.38118
 CYCLE:    91 TIME:   0.117 TIME LEFT: 11.81M  GRAD.:     5.806 HEAT:  96.33561
 CYCLE:    92 TIME:   0.117 TIME LEFT: 11.80M  GRAD.:     6.469 HEAT:  96.28911
 CYCLE:    93 TIME:   0.125 TIME LEFT: 11.80M  GRAD.:    12.906 HEAT:  96.22951
 CYCLE:    94 TIME:   0.125 TIME LEFT: 11.80M  GRAD.:     6.676 HEAT:  96.16968
 CYCLE:    95 TIME:   0.125 TIME LEFT: 11.80M  GRAD.:     6.023 HEAT:  96.13371
 CYCLE:    96 TIME:   0.125 TIME LEFT: 11.80M  GRAD.:     8.142 HEAT:  96.09379
 CYCLE:    97 TIME:   0.125 TIME LEFT: 11.79M  GRAD.:     7.403 HEAT:  96.04589
 CYCLE:    98 TIME:   0.125 TIME LEFT: 11.79M  GRAD.:     7.918 HEAT:  95.99455
 CYCLE:    99 TIME:   0.125 TIME LEFT: 11.79M  GRAD.:     7.013 HEAT:  95.93420
 CYCLE:   100 TIME:   0.117 TIME LEFT: 11.79M  GRAD.:     9.923 HEAT:  95.89378
 CYCLE:   101 TIME:   0.125 TIME LEFT: 11.79M  GRAD.:     6.772 HEAT:  95.83627
 CYCLE:   102 TIME:   0.117 TIME LEFT: 11.78M  GRAD.:     6.399 HEAT:  95.77741
 CYCLE:   103 TIME:   0.125 TIME LEFT: 11.78M  GRAD.:     6.282 HEAT:  95.72880
 CYCLE:   104 TIME:   0.117 TIME LEFT: 11.78M  GRAD.:     7.178 HEAT:  95.68894
 CYCLE:   105 TIME:   0.117 TIME LEFT: 11.78M  GRAD.:     5.645 HEAT:  95.62769
 CYCLE:   106 TIME:   0.117 TIME LEFT: 11.78M  GRAD.:    12.032 HEAT:  95.57349
 CYCLE:   107 TIME:   0.117 TIME LEFT: 11.77M  GRAD.:     5.361 HEAT:  95.51984
 CYCLE:   108 TIME:   0.117 TIME LEFT: 11.77M  GRAD.:     5.849 HEAT:  95.49326
 CYCLE:   109 TIME:   0.117 TIME LEFT: 11.77M  GRAD.:     7.162 HEAT:  95.44809
 CYCLE:   110 TIME:   0.125 TIME LEFT: 11.77M  GRAD.:     6.490 HEAT:  95.39153
 CYCLE:   111 TIME:   0.117 TIME LEFT: 11.77M  GRAD.:    10.818 HEAT:  95.35787
 CYCLE:   112 TIME:   0.125 TIME LEFT: 11.76M  GRAD.:     5.398 HEAT:  95.31828
 CYCLE:   113 TIME:   0.117 TIME LEFT: 11.76M  GRAD.:     6.517 HEAT:  95.28595
 CYCLE:   114 TIME:   0.117 TIME LEFT: 11.76M  GRAD.:     5.561 HEAT:  95.25420
 CYCLE:   115 TIME:   0.133 TIME LEFT: 11.76M  GRAD.:     6.851 HEAT:  95.19601
 CYCLE:   116 TIME:   0.133 TIME LEFT: 11.76M  GRAD.:     9.300 HEAT:  95.16262
 CYCLE:   117 TIME:   0.117 TIME LEFT: 11.75M  GRAD.:     6.022 HEAT:  95.12765
 CYCLE:   118 TIME:   0.125 TIME LEFT: 11.75M  GRAD.:     4.545 HEAT:  95.07909

 -------------------------------------------------------------------------------
 PM6 NOSYM T=12M GNORM=5.000000 CHARGE=1 AUX LOCALIZE
   MOPAC run
   ready to go?


     HERBERTS TEST WAS SATISFIED IN BFGS                      
     SCF FIELD WAS ACHIEVED                                   


                              PM6 CALCULATION
                                                       MOPAC2016 (Version: 17.165L)
                                                       Tue Oct 31 21:12:46 2017
                                                       No. of days remaining = 226




          FINAL HEAT OF FORMATION =         95.07892 KCAL/MOL =     397.81021 KJ/MOL


          TOTAL ENERGY            =      -3504.34209 EV
          ELECTRONIC ENERGY       =     -31940.07052 EV  POINT GROUP:     C1  
          CORE-CORE REPULSION     =      28435.72842 EV
          COSMO AREA              =        357.43 SQUARE ANGSTROMS
          COSMO VOLUME            =        473.99 CUBIC ANGSTROMS

          GRADIENT NORM           =          4.54519
          IONIZATION POTENTIAL    =         10.908542 EV
          HOMO LUMO ENERGIES (EV) =        -10.909 -4.226
          NO. OF FILLED LEVELS    =         64
          MOLECULAR WEIGHT        =        403.6941

          MOLECULAR DIMENSIONS (Angstroms)

            Atom       Atom       Distance
            H    24    H    15    10.06413
            H    48    H     8     9.04170
            H    45    H    29     8.42474


          SCF CALCULATIONS        =        119
 
          WALL-CLOCK TIME         =         14.984 SECONDS
          COMPUTATION TIME        =         14.725 SECONDS



       FINAL  POINT  AND  DERIVATIVES

   PARAMETER     ATOM    TYPE            VALUE       GRADIENT
      1          1  C    CARTESIAN X    -1.233301    -0.162363  KCAL/ANGSTROM
      2          1  C    CARTESIAN Y     1.086274    -0.152090  KCAL/ANGSTROM
      3          1  C    CARTESIAN Z    -1.655858     0.511328  KCAL/ANGSTROM
      4          2  C    CARTESIAN X    -0.247960     0.228584  KCAL/ANGSTROM
      5          2  C    CARTESIAN Y     0.553874     0.015062  KCAL/ANGSTROM
      6          2  C    CARTESIAN Z    -0.827254    -0.069361  KCAL/ANGSTROM
      7          3  C    CARTESIAN X    -2.443252    -0.151624  KCAL/ANGSTROM
      8          3  C    CARTESIAN Y     1.466802    -0.252616  KCAL/ANGSTROM
      9          3  C    CARTESIAN Z    -1.078137     0.508160  KCAL/ANGSTROM
     10          4  H    CARTESIAN X    -1.075333    -0.214402  KCAL/ANGSTROM
     11          4  H    CARTESIAN Y     1.213770     0.246669  KCAL/ANGSTROM
     12          4  H    CARTESIAN Z    -2.725754     0.072757  KCAL/ANGSTROM
     13          5  C    CARTESIAN X    -2.638738     0.568753  KCAL/ANGSTROM
     14          5  C    CARTESIAN Y     1.324956    -0.018515  KCAL/ANGSTROM
     15          5  C    CARTESIAN Z     0.305461    -0.487419  KCAL/ANGSTROM
     16          6  H    CARTESIAN X    -3.238584    -0.503191  KCAL/ANGSTROM
     17          6  H    CARTESIAN Y     1.882506     0.363681  KCAL/ANGSTROM
     18          6  H    CARTESIAN Z    -1.699951    -0.174595  KCAL/ANGSTROM
     19          7  C    CARTESIAN X    -1.643237    -0.326456  KCAL/ANGSTROM
     20          7  C    CARTESIAN Y     0.807065    -0.079331  KCAL/ANGSTROM
     21          7  C    CARTESIAN Z     1.123668    -0.096227  KCAL/ANGSTROM
     22          8  H    CARTESIAN X    -3.590704    -0.152624  KCAL/ANGSTROM
     23          8  H    CARTESIAN Y     1.637631     0.241301  KCAL/ANGSTROM
     24          8  H    CARTESIAN Z     0.745964     0.168358  KCAL/ANGSTROM
     25          9  C    CARTESIAN X    -0.401916    -0.250908  KCAL/ANGSTROM
     26          9  C    CARTESIAN Y     0.390211    -0.457505  KCAL/ANGSTROM
     27          9  C    CARTESIAN Z     0.582276    -0.191120  KCAL/ANGSTROM
     28         10  H    CARTESIAN X    -1.812490    -0.094402  KCAL/ANGSTROM
     29         10  H    CARTESIAN Y     0.708894     0.080097  KCAL/ANGSTROM
     30         10  H    CARTESIAN Z     2.201667     0.796075  KCAL/ANGSTROM
     31         11  O    CARTESIAN X     1.051342     0.780135  KCAL/ANGSTROM
     32         11  O    CARTESIAN Y     0.199934    -0.188457  KCAL/ANGSTROM
     33         11  O    CARTESIAN Z    -1.340570     0.083750  KCAL/ANGSTROM
     34         12  C    CARTESIAN X     1.104759     0.009337  KCAL/ANGSTROM
     35         12  C    CARTESIAN Y    -0.276138     0.148197  KCAL/ANGSTROM
     36         12  C    CARTESIAN Z    -2.718074    -0.362299  KCAL/ANGSTROM
     37         13  H    CARTESIAN X     0.342224     0.401402  KCAL/ANGSTROM
     38         13  H    CARTESIAN Y    -1.058352    -0.260543  KCAL/ANGSTROM
     39         13  H    CARTESIAN Z    -2.847735    -0.074360  KCAL/ANGSTROM
     40         14  H    CARTESIAN X     2.113935    -0.527618  KCAL/ANGSTROM
     41         14  H    CARTESIAN Y    -0.691971    -0.394190  KCAL/ANGSTROM
     42         14  H    CARTESIAN Z    -2.846301     0.145109  KCAL/ANGSTROM
     43         15  H    CARTESIAN X     0.932838    -0.424263  KCAL/ANGSTROM
     44         15  H    CARTESIAN Y     0.586395     0.620494  KCAL/ANGSTROM
     45         15  H    CARTESIAN Z    -3.378889     0.026718  KCAL/ANGSTROM
     46         16  N    CARTESIAN X     0.701352     0.298983  KCAL/ANGSTROM
     47         16  N    CARTESIAN Y    -0.061706     0.009236  KCAL/ANGSTROM
     48         16  N    CARTESIAN Z     1.317458     0.551183  KCAL/ANGSTROM
     49         17  C    CARTESIAN X     0.634294     0.351157  KCAL/ANGSTROM
     50         17  C    CARTESIAN Y    -0.351278     0.447564  KCAL/ANGSTROM
     51         17  C    CARTESIAN Z     2.718806    -0.243052  KCAL/ANGSTROM
     52         18  C    CARTESIAN X     1.610679    -0.445342  KCAL/ANGSTROM
     53         18  C    CARTESIAN Y     0.286805    -1.131031  KCAL/ANGSTROM
     54         18  C    CARTESIAN Z     3.540745    -0.338163  KCAL/ANGSTROM
     55         19  C    CARTESIAN X    -0.283410    -0.527871  KCAL/ANGSTROM
     56         19  C    CARTESIAN Y    -1.269609    -0.032280  KCAL/ANGSTROM
     57         19  C    CARTESIAN Z     3.273744     0.016642  KCAL/ANGSTROM
     58         20  C    CARTESIAN X     1.559360    -0.140582  KCAL/ANGSTROM
     59         20  C    CARTESIAN Y     0.084227     0.174876  KCAL/ANGSTROM
     60         20  C    CARTESIAN Z     4.921123    -0.140723  KCAL/ANGSTROM
     61         21  C    CARTESIAN X    -0.300235     0.232799  KCAL/ANGSTROM
     62         21  C    CARTESIAN Y    -1.437453     0.393164  KCAL/ANGSTROM
     63         21  C    CARTESIAN Z     4.668866     0.379337  KCAL/ANGSTROM
     64         22  C    CARTESIAN X     0.596586     0.096499  KCAL/ANGSTROM
     65         22  C    CARTESIAN Y    -0.757795    -0.208423  KCAL/ANGSTROM
     66         22  C    CARTESIAN Z     5.486624    -0.370140  KCAL/ANGSTROM
     67         23  H    CARTESIAN X    -1.027790    -0.203266  KCAL/ANGSTROM
     68         23  H    CARTESIAN Y    -2.120721     0.237876  KCAL/ANGSTROM
     69         23  H    CARTESIAN Z     5.114160    -0.180046  KCAL/ANGSTROM
     70         24  H    CARTESIAN X     0.561943     0.077278  KCAL/ANGSTROM
     71         24  H    CARTESIAN Y    -0.890953     0.010160  KCAL/ANGSTROM
     72         24  H    CARTESIAN Z     6.569305     0.245704  KCAL/ANGSTROM
     73         25  H    CARTESIAN X     2.268233     0.171638  KCAL/ANGSTROM
     74         25  H    CARTESIAN Y     0.579336     0.119810  KCAL/ANGSTROM
     75         25  H    CARTESIAN Z     5.587403     0.055036  KCAL/ANGSTROM
     76         26  C    CARTESIAN X     2.714952    -0.222462  KCAL/ANGSTROM
     77         26  C    CARTESIAN Y     1.143087    -0.625831  KCAL/ANGSTROM
     78         26  C    CARTESIAN Z     2.921826    -0.253167  KCAL/ANGSTROM
     79         27  C    CARTESIAN X     2.142634     0.325466  KCAL/ANGSTROM
     80         27  C    CARTESIAN Y     2.397809    -0.397650  KCAL/ANGSTROM
     81         27  C    CARTESIAN Z     2.220247    -0.148786  KCAL/ANGSTROM
     82         28  H    CARTESIAN X     1.922149     0.353560  KCAL/ANGSTROM
     83         28  H    CARTESIAN Y     2.346508     0.524969  KCAL/ANGSTROM
     84         28  H    CARTESIAN Z     1.110369     0.050083  KCAL/ANGSTROM
     85         29  H    CARTESIAN X     2.814410     0.233381  KCAL/ANGSTROM
     86         29  H    CARTESIAN Y     3.270035    -0.062705  KCAL/ANGSTROM
     87         29  H    CARTESIAN Z     2.330289     0.158356  KCAL/ANGSTROM
     88         30  H    CARTESIAN X     1.190525     0.442172  KCAL/ANGSTROM
     89         30  H    CARTESIAN Y     2.701422    -0.243446  KCAL/ANGSTROM
     90         30  H    CARTESIAN Z     2.693796    -0.084331  KCAL/ANGSTROM
     91         31  C    CARTESIAN X     3.773808    -0.510846  KCAL/ANGSTROM
     92         31  C    CARTESIAN Y     1.603993    -0.231680  KCAL/ANGSTROM
     93         31  C    CARTESIAN Z     3.928426    -0.532045  KCAL/ANGSTROM
     94         32  H    CARTESIAN X     4.566127    -0.846124  KCAL/ANGSTROM
     95         32  H    CARTESIAN Y     2.193365     0.418705  KCAL/ANGSTROM
     96         32  H    CARTESIAN Z     3.448200    -0.137028  KCAL/ANGSTROM
     97         33  H    CARTESIAN X     4.263418    -0.162236  KCAL/ANGSTROM
     98         33  H    CARTESIAN Y     0.764112     0.704894  KCAL/ANGSTROM
     99         33  H    CARTESIAN Z     4.438778     0.079387  KCAL/ANGSTROM
    100         34  H    CARTESIAN X     3.336694    -0.221291  KCAL/ANGSTROM
    101         34  H    CARTESIAN Y     2.246371    -0.265527  KCAL/ANGSTROM
    102         34  H    CARTESIAN Z     4.706912    -0.794707  KCAL/ANGSTROM
    103         35  H    CARTESIAN X     3.340152    -0.409986  KCAL/ANGSTROM
    104         35  H    CARTESIAN Y     0.429394     0.224934  KCAL/ANGSTROM
    105         35  H    CARTESIAN Z     2.199189     0.882358  KCAL/ANGSTROM
    106         36  C    CARTESIAN X    -2.678844     0.189948  KCAL/ANGSTROM
    107         36  C    CARTESIAN Y    -1.860077     0.409060  KCAL/ANGSTROM
    108         36  C    CARTESIAN Z     2.784923     0.075122  KCAL/ANGSTROM
    109         37  C    CARTESIAN X    -1.210828     0.212000  KCAL/ANGSTROM
    110         37  C    CARTESIAN Y    -2.130406     0.101248  KCAL/ANGSTROM
    111         37  C    CARTESIAN Z     2.432236    -0.007694  KCAL/ANGSTROM
    112         38  H    CARTESIAN X    -2.927162    -0.324819  KCAL/ANGSTROM
    113         38  H    CARTESIAN Y    -0.793985     0.405053  KCAL/ANGSTROM
    114         38  H    CARTESIAN Z     2.720700    -0.198813  KCAL/ANGSTROM
    115         39  H    CARTESIAN X    -2.932928    -0.377036  KCAL/ANGSTROM
    116         39  H    CARTESIAN Y    -2.190662     0.223265  KCAL/ANGSTROM
    117         39  H    CARTESIAN Z     3.799064     0.124703  KCAL/ANGSTROM
    118         40  H    CARTESIAN X    -3.348917     0.290218  KCAL/ANGSTROM
    119         40  H    CARTESIAN Y    -2.393777     0.253437  KCAL/ANGSTROM
    120         40  H    CARTESIAN Z     2.100041    -0.174110  KCAL/ANGSTROM
    121         41  C    CARTESIAN X    -0.861926     0.150336  KCAL/ANGSTROM
    122         41  C    CARTESIAN Y    -3.614703    -0.195174  KCAL/ANGSTROM
    123         41  C    CARTESIAN Z     2.618964     0.127058  KCAL/ANGSTROM
    124         42  H    CARTESIAN X    -1.068797     0.141115  KCAL/ANGSTROM
    125         42  H    CARTESIAN Y    -1.898782    -0.237975  KCAL/ANGSTROM
    126         42  H    CARTESIAN Z     1.345822    -0.239904  KCAL/ANGSTROM
    127         43  H    CARTESIAN X    -1.053259    -0.122830  KCAL/ANGSTROM
    128         43  H    CARTESIAN Y    -3.965423    -0.417936  KCAL/ANGSTROM
    129         43  H    CARTESIAN Z     3.640455     0.414248  KCAL/ANGSTROM
    130         44  H    CARTESIAN X     0.194743     0.830472  KCAL/ANGSTROM
    131         44  H    CARTESIAN Y    -3.812069    -0.370604  KCAL/ANGSTROM
    132         44  H    CARTESIAN Z     2.400291    -0.129150  KCAL/ANGSTROM
    133         45  H    CARTESIAN X    -1.463226    -0.528033  KCAL/ANGSTROM
    134         45  H    CARTESIAN Y    -4.243985    -0.280215  KCAL/ANGSTROM
    135         45  H    CARTESIAN Z     1.949827    -0.537845  KCAL/ANGSTROM
    136         46 Zr    CARTESIAN X     2.595007     0.142913  KCAL/ANGSTROM
    137         46 Zr    CARTESIAN Y     0.352913     0.724534  KCAL/ANGSTROM
    138         46 Zr    CARTESIAN Z     0.248344     0.272855  KCAL/ANGSTROM
    139         47  C    CARTESIAN X     4.049661    -0.192371  KCAL/ANGSTROM
    140         47  C    CARTESIAN Y    -1.376941     0.126348  KCAL/ANGSTROM
    141         47  C    CARTESIAN Z     0.346779     0.174978  KCAL/ANGSTROM
    142         48  H    CARTESIAN X     5.041804     0.949032  KCAL/ANGSTROM
    143         48  H    CARTESIAN Y    -1.030756     0.157883  KCAL/ANGSTROM
    144         48  H    CARTESIAN Z     0.022602    -0.029736  KCAL/ANGSTROM
    145         49  H    CARTESIAN X     3.705493    -0.168218  KCAL/ANGSTROM
    146         49  H    CARTESIAN Y    -2.156682    -1.041389  KCAL/ANGSTROM
    147         49  H    CARTESIAN Z    -0.348803     0.161924  KCAL/ANGSTROM
    148         50  H    CARTESIAN X     4.173709     0.535655  KCAL/ANGSTROM
    149         50  H    CARTESIAN Y    -1.866563    -0.211514  KCAL/ANGSTROM
    150         50  H    CARTESIAN Z     1.317231    -0.093793  KCAL/ANGSTROM
    151         51  C    CARTESIAN X     3.793276     0.164008  KCAL/ANGSTROM
    152         51  C    CARTESIAN Y     2.021876    -0.117360  KCAL/ANGSTROM
    153         51  C    CARTESIAN Z    -0.685319     0.218757  KCAL/ANGSTROM
    154         52  H    CARTESIAN X     3.368925     0.073650  KCAL/ANGSTROM
    155         52  H    CARTESIAN Y     2.960442    -0.245063  KCAL/ANGSTROM
    156         52  H    CARTESIAN Z    -1.033415     0.065431  KCAL/ANGSTROM
    157         53  H    CARTESIAN X     4.086434    -0.297162  KCAL/ANGSTROM
    158         53  H    CARTESIAN Y     1.414373     0.264535  KCAL/ANGSTROM
    159         53  H    CARTESIAN Z    -1.571127    -0.112631  KCAL/ANGSTROM
    160         54  H    CARTESIAN X     4.706447     0.257832  KCAL/ANGSTROM
    161         54  H    CARTESIAN Y     2.268834     0.471998  KCAL/ANGSTROM
    162         54  H    CARTESIAN Z    -0.131610    -0.164170  KCAL/ANGSTROM




   ATOM   CHEMICAL          X               Y               Z
  NUMBER   SYMBOL      (ANGSTROMS)     (ANGSTROMS)     (ANGSTROMS)
 
     1       C         -1.23330064  *   1.08627392  *  -1.65585787  *
     2       C         -0.24796015  *   0.55387352  *  -0.82725366  *
     3       C         -2.44325187  *   1.46680244  *  -1.07813691  *
     4       H         -1.07533314  *   1.21377014  *  -2.72575449  *
     5       C         -2.63873837  *   1.32495588  *   0.30546080  *
     6       H         -3.23858406  *   1.88250587  *  -1.69995072  *
     7       C         -1.64323748  *   0.80706499  *   1.12366803  *
     8       H         -3.59070441  *   1.63763142  *   0.74596411  *
     9       C         -0.40191638  *   0.39021138  *   0.58227569  *
    10       H         -1.81249007  *   0.70889423  *   2.20166655  *
    11       O          1.05134219  *   0.19993391  *  -1.34056983  *
    12       C          1.10475909  *  -0.27613769  *  -2.71807369  *
    13       H          0.34222425  *  -1.05835177  *  -2.84773505  *
    14       H          2.11393511  *  -0.69197143  *  -2.84630115  *
    15       H          0.93283830  *   0.58639461  *  -3.37888879  *
    16       N          0.70135202  *  -0.06170644  *   1.31745794  *
    17       C          0.63429395  *  -0.35127784  *   2.71880629  *
    18       C          1.61067913  *   0.28680485  *   3.54074469  *
    19       C         -0.28340971  *  -1.26960861  *   3.27374437  *
    20       C          1.55936046  *   0.08422749  *   4.92112337  *
    21       C         -0.30023537  *  -1.43745312  *   4.66886613  *
    22       C          0.59658620  *  -0.75779524  *   5.48662435  *
    23       H         -1.02779035  *  -2.12072134  *   5.11415956  *
    24       H          0.56194254  *  -0.89095318  *   6.56930471  *
    25       H          2.26823256  *   0.57933633  *   5.58740255  *
    26       C          2.71495225  *   1.14308738  *   2.92182631  *
    27       C          2.14263353  *   2.39780860  *   2.22024670  *
    28       H          1.92214923  *   2.34650846  *   1.11036875  *
    29       H          2.81441031  *   3.27003501  *   2.33028886  *
    30       H          1.19052512  *   2.70142220  *   2.69379590  *
    31       C          3.77380773  *   1.60399327  *   3.92842593  *
    32       H          4.56612705  *   2.19336540  *   3.44820020  *
    33       H          4.26341811  *   0.76411178  *   4.43877804  *
    34       H          3.33669389  *   2.24637136  *   4.70691210  *
    35       H          3.34015184  *   0.42939418  *   2.19918859  *
    36       C         -2.67884378  *  -1.86007653  *   2.78492324  *
    37       C         -1.21082792  *  -2.13040644  *   2.43223583  *
    38       H         -2.92716207  *  -0.79398532  *   2.72069971  *
    39       H         -2.93292825  *  -2.19066239  *   3.79906415  *
    40       H         -3.34891687  *  -2.39377680  *   2.10004067  *
    41       C         -0.86192612  *  -3.61470274  *   2.61896427  *
    42       H         -1.06879729  *  -1.89878182  *   1.34582208  *
    43       H         -1.05325893  *  -3.96542252  *   3.64045521  *
    44       H          0.19474251  *  -3.81206856  *   2.40029084  *
    45       H         -1.46322597  *  -4.24398471  *   1.94982653  *
    46      Zr          2.59500716  *   0.35291279  *   0.24834404  *
    47       C          4.04966058  *  -1.37694109  *   0.34677928  *
    48       H          5.04180417  *  -1.03075638  *   0.02260224  *
    49       H          3.70549336  *  -2.15668156  *  -0.34880319  *
    50       H          4.17370892  *  -1.86656295  *   1.31723074  *
    51       C          3.79327588  *   2.02187637  *  -0.68531887  *
    52       H          3.36892484  *   2.96044242  *  -1.03341464  *
    53       H          4.08643421  *   1.41437331  *  -1.57112678  *
    54       H          4.70644672  *   2.26883396  *  -0.13160974  *

                             CARTESIAN COORDINATES

   1    C       -1.233300637     1.086273925    -1.655857870
   2    C       -0.247960154     0.553873520    -0.827253663
   3    C       -2.443251875     1.466802440    -1.078136907
   4    H       -1.075333138     1.213770144    -2.725754489
   5    C       -2.638738369     1.324955884     0.305460803
   6    H       -3.238584063     1.882505865    -1.699950717
   7    C       -1.643237485     0.807064987     1.123668033
   8    H       -3.590704408     1.637631418     0.745964109
   9    C       -0.401916382     0.390211381     0.582275685
  10    H       -1.812490069     0.708894226     2.201666553
  11    O        1.051342185     0.199933911    -1.340569826
  12    C        1.104759091    -0.276137694    -2.718073695
  13    H        0.342224250    -1.058351773    -2.847735047
  14    H        2.113935108    -0.691971425    -2.846301145
  15    H        0.932838296     0.586394613    -3.378888795
  16    N        0.701352015    -0.061706438     1.317457940
  17    C        0.634293949    -0.351277836     2.718806292
  18    C        1.610679132     0.286804848     3.540744693
  19    C       -0.283409707    -1.269608609     3.273744368
  20    C        1.559360456     0.084227495     4.921123370
  21    C       -0.300235374    -1.437453117     4.668866126
  22    C        0.596586202    -0.757795239     5.486624353
  23    H       -1.027790355    -2.120721339     5.114159560
  24    H        0.561942537    -0.890953178     6.569304710
  25    H        2.268232558     0.579336334     5.587402551
  26    C        2.714952255     1.143087376     2.921826315
  27    C        2.142633531     2.397808601     2.220246705
  28    H        1.922149230     2.346508461     1.110368748
  29    H        2.814410315     3.270035014     2.330288862
  30    H        1.190525121     2.701422204     2.693795896
  31    C        3.773807731     1.603993268     3.928425929
  32    H        4.566127048     2.193365396     3.448200203
  33    H        4.263418111     0.764111779     4.438778043
  34    H        3.336693892     2.246371365     4.706912096
  35    H        3.340151839     0.429394176     2.199188594
  36    C       -2.678843776    -1.860076534     2.784923238
  37    C       -1.210827920    -2.130406438     2.432235833
  38    H       -2.927162066    -0.793985325     2.720699709
  39    H       -2.932928247    -2.190662389     3.799064146
  40    H       -3.348916873    -2.393776803     2.100040669
  41    C       -0.861926116    -3.614702736     2.618964274
  42    H       -1.068797292    -1.898781824     1.345822085
  43    H       -1.053258934    -3.965422518     3.640455211
  44    H        0.194742510    -3.812068563     2.400290843
  45    H       -1.463225970    -4.243984712     1.949826533
  46   Zr        2.595007164     0.352912788     0.248344042
  47    C        4.049660583    -1.376941089     0.346779277
  48    H        5.041804169    -1.030756381     0.022602235
  49    H        3.705493360    -2.156681559    -0.348803189
  50    H        4.173708919    -1.866562952     1.317230742
  51    C        3.793275878     2.021876367    -0.685318872
  52    H        3.368924843     2.960442416    -1.033414635
  53    H        4.086434209     1.414373306    -1.571126776
  54    H        4.706446717     2.268833965    -0.131609743


           Empirical Formula: C21 H30 N O Zr  =    54 atoms



      MOLECULAR POINT GROUP   :   C1  


                  EIGENVALUES  
 -34.85456 -34.43476 -32.92502 -32.29436 -31.88968 -30.58794 -29.88661 -28.99703
 -28.40087 -28.00740 -27.33026 -27.15813 -26.49992 -26.35331 -25.86299 -25.06569
 -24.81966 -24.50776 -23.37798 -22.90164 -21.67176 -21.31902 -20.94338 -20.30082
 -20.17935 -19.64671 -19.01348 -18.75383 -18.49140 -18.26302 -18.24638 -17.80694
 -17.57031 -17.23338 -17.12464 -16.99577 -16.85540 -16.67314 -16.49236 -16.28025
 -16.14211 -16.06892 -15.93609 -15.82122 -15.70688 -15.60490 -15.52749 -15.37777
 -15.36485 -15.28424 -15.19620 -15.02594 -14.80476 -14.60659 -14.38418 -14.25645
 -13.86746 -13.63816 -12.91183 -12.78525 -12.28163 -12.12619 -12.01415 -10.90854
  -4.22571  -3.14834  -2.90990  -2.79805  -2.40180  -2.29875  -2.06497  -1.89265
  -1.71692  -1.20707  -0.83537  -0.53107  -0.36273  -0.15654   0.21739   0.41463
   0.53818   0.70318   0.75606   1.22016   1.29161   1.36526   1.46785   1.50482
   1.58103   1.80387   1.82010   1.87165   1.92003   2.00431   2.04181   2.13593
   2.20092   2.29027   2.38065   2.42771   2.51250   2.55199   2.61988   2.74869
   2.80011   2.84140   2.89075   2.94537   3.06082   3.16254   3.25565   3.30082
   3.32773   3.41293   3.47959   3.57880   3.58810   3.72822   3.77022   3.80019
   3.82098   3.84307   3.86643   3.88185   3.89253   3.94576   4.01281   4.71388
   4.81759   5.06302   5.18934


              NET ATOMIC CHARGES AND DIPOLE CONTRIBUTIONS

  ATOM NO.   TYPE          CHARGE      No. of ELECS.   s-Pop       p-Pop       d-Pop       
    1          C          -0.138049        4.1380     1.10381     3.03423
    2          C           0.027089        3.9729     1.09389     2.87902
    3          C          -0.192213        4.1922     1.10402     3.08819
    4          H           0.165559        0.8344     0.83444
    5          C          -0.043705        4.0437     1.10852     2.93519
    6          H           0.173702        0.8263     0.82630
    7          C          -0.278555        4.2786     1.11013     3.16843
    8          H           0.161640        0.8384     0.83836
    9          C           0.210167        3.7898     1.07683     2.71300
   10          H           0.190430        0.8096     0.80957
   11          O          -0.297179        6.2972     1.68349     4.61369
   12          C          -0.158589        4.1586     1.11884     3.03975
   13          H           0.173492        0.8265     0.82651
   14          H           0.169490        0.8305     0.83051
   15          H           0.166782        0.8332     0.83322
   16          N          -0.441577        5.4416     1.54181     3.89977
   17          C           0.138292        3.8617     1.08319     2.77851
   18          C          -0.143481        4.1435     1.10380     3.03968
   19          C          -0.073192        4.0732     1.10955     2.96364
   20          C          -0.112723        4.1127     1.10582     3.00690
   21          C          -0.108624        4.1086     1.11055     2.99807
   22          C          -0.171098        4.1711     1.10720     3.06390
   23          H           0.162658        0.8373     0.83734
   24          H           0.164279        0.8357     0.83572
   25          H           0.157291        0.8427     0.84271
   26          C           0.102713        3.8973     1.06909     2.82819
   27          C          -0.472655        4.4727     1.08577     3.38688
   28          H           0.182373        0.8176     0.81763
   29          H           0.185354        0.8146     0.81465
   30          H           0.192526        0.8075     0.80747
   31          C          -0.514834        4.5148     1.09223     3.42260
   32          H           0.169469        0.8305     0.83053
   33          H           0.176123        0.8239     0.82388
   34          H           0.179848        0.8202     0.82015
   35          H           0.133299        0.8667     0.86670
   36          C          -0.495299        4.4953     1.08877     3.40653
   37          C           0.012146        3.9879     1.07542     2.91243
   38          H           0.150205        0.8498     0.84979
   39          H           0.160306        0.8397     0.83969
   40          H           0.160374        0.8396     0.83963
   41          C          -0.491795        4.4918     1.08911     3.40269
   42          H           0.124451        0.8755     0.87555
   43          H           0.159512        0.8405     0.84049
   44          H           0.155751        0.8442     0.84425
   45          H           0.158484        0.8415     0.84152
   46         Zr           1.290268        2.7097     0.31804     0.99918     1.39252
   47          C          -0.824867        4.8249     1.11447     3.71039
   48          H           0.176132        0.8239     0.82387
   49          H           0.170321        0.8297     0.82968
   50          H           0.175511        0.8245     0.82449
   51          C          -0.834081        4.8341     1.11598     3.71810
   52          H           0.168377        0.8316     0.83162
   53          H           0.171250        0.8288     0.82875
   54          H           0.176853        0.8231     0.82315
 DIPOLE           X         Y         Z       TOTAL
 POINT-CHG.     0.754     2.152    -3.738     4.378
 HYBRID         1.292    -0.211    -0.881     1.578
 SUM            2.045     1.941    -4.619     5.412


          ATOMIC ORBITAL ELECTRON POPULATIONS

     Atom    s        px        py        pz      x^2-y^2     xz        z^2       yz        xy
    1  C   1.10381   0.97672   0.99193   1.06559
    2  C   1.09389   0.79122   1.14889   0.93891
    3  C   1.10402   1.02375   1.05136   1.01308
    4  H   0.83444
    5  C   1.10852   1.03308   0.92907   0.97304
    6  H   0.82630
    7  C   1.11013   0.99081   1.07689   1.10072
    8  H   0.83836
    9  C   1.07683   0.90438   0.91021   0.89841
   10  H   0.80957
   11  O   1.68349   1.41270   1.81203   1.38895
   12  C   1.11884   1.17028   1.11553   0.75394
   13  H   0.82651
   14  H   0.83051
   15  H   0.83322
   16  N   1.54181   1.21618   1.54340   1.14018
   17  C   1.08319   0.97961   0.96976   0.82915
   18  C   1.10380   1.01470   1.03864   0.98634
   19  C   1.10955   1.00229   0.97623   0.98513
   20  C   1.10582   1.02264   0.99746   0.98680
   21  C   1.11055   1.01114   1.00657   0.98036
   22  C   1.10720   0.98831   0.99854   1.07705
   23  H   0.83734
   24  H   0.83572
   25  H   0.84271
   26  C   1.06909   0.95197   0.93144   0.94478
   27  C   1.08577   1.19941   1.09071   1.09676
   28  H   0.81763
   29  H   0.81465
   30  H   0.80747
   31  C   1.09223   1.10569   1.18511   1.13180
   32  H   0.83053
   33  H   0.82388
   34  H   0.82015
   35  H   0.86670
   36  C   1.08877   1.05348   1.16953   1.18352
   37  C   1.07542   0.92601   0.93795   1.04847
   38  H   0.84979
   39  H   0.83969
   40  H   0.83963
   41  C   1.08911   1.17058   1.04537   1.18674
   42  H   0.87555
   43  H   0.84049
   44  H   0.84425
   45  H   0.84152
   46 Zr   0.31804   0.35901   0.36227   0.27790   0.21223   0.30893   0.26253   0.20607   0.40276
   47  C   1.11447   1.26211   1.28981   1.15848
   48  H   0.82387
   49  H   0.82968
   50  H   0.82449
   51  C   1.11598   1.28038   1.21077   1.22696
   52  H   0.83162
   53  H   0.82875
   54  H   0.82315

          NUMBER OF ITERATIONS =  31
          LOCALISATION VALUE =  32.392355178

   NUMBER OF CENTERS              (COMPOSITION OF ORBITALS)


    1.3082   O  11 86.42   ZR 46 13.22
    1.8284   O  11 66.89   C   2 31.53
    1.8306   O  11 66.62   C  12 31.98
    2.0727   N  16 54.17   C   9 43.45   ZR 46  1.25
    2.0194   C   2 52.28   C   1 47.10
    2.0576   C   2 51.53   C   9 46.95
    2.0280   N  16 56.90   C  17 41.13   ZR 46  1.10
    2.0406   C   9 51.01   C   7 47.94
    2.0333   C   1 50.98   C   3 48.15
    2.0178   C   7 50.80   C   5 48.74
    2.0303   C  17 50.99   C  19 48.23
    2.0380   C  18 49.86   C  17 49.20
    2.0246   C  18 50.93   C  20 48.43
    2.0143   C   3 50.17   C   5 49.47
    1.5009   N  16 79.29   ZR 46 19.39
    2.0152   C  22 49.96   C  21 49.66
    2.0246   C  19 50.06   C  21 49.32
    2.0184   C  20 50.07   C  22 49.47
    1.9765   C  12 57.80   H  14 41.45
    1.9504   C  12 58.36   H  15 41.49
    2.0330   C  18 49.93   C  26 49.25
    1.9458   C  12 58.68   H  13 41.18
    2.0596   C  27 51.38   C  26 47.05   ZR 46  1.02
    1.9734   C   1 57.83   H   4 41.51
    2.4052   C  26 47.21   H  35 42.94   ZR 46  9.23
    2.0208   C  31 49.84   C  26 49.64
    2.2104   C  27 53.28   H  28 40.65   ZR 46  5.74
    2.0151   C  19 53.61   C  37 45.70
    1.9697   C   5 57.76   H   8 41.73
    1.9580   C   7 59.06   H  10 40.23
    1.9622   C   3 58.34   H   6 41.14
    1.9716   C  20 57.60   H  25 41.89
    1.9482   C  27 59.02   H  29 40.62
    1.9445   C  27 59.33   H  30 40.28
    1.9662   C  22 57.92   H  24 41.60
    1.9693   C  21 57.82   H  23 41.65
    1.9574   C  31 58.24   H  32 41.43
    1.9521   C  31 58.60   H  33 41.09
    1.9512   C  31 58.75   H  34 40.91
    2.0195   C  36 51.38   C  37 48.09
    2.0235   C  41 51.08   C  37 48.30
    1.9875   C  37 55.98   H  42 43.56
    1.9698   C  36 57.31   H  38 42.34
    2.1594   C  51 53.84   H  53 41.36   ZR 46  4.66
    1.9619   C  36 57.81   H  40 41.89
    1.9630   C  41 57.62   H  44 42.13
    1.9573   C  36 57.93   H  39 41.88
    2.0138   C  51 56.93   H  52 41.50   ZR 46  1.44
    1.9637   C  41 57.70   H  45 41.99
    1.9573   C  41 57.90   H  43 41.92
    2.0537   C  51 56.37   H  54 41.06   ZR 46  2.46
    2.0830   C  47 55.49   H  49 41.39   ZR 46  2.96
    2.0623   C  47 56.14   H  48 41.12   ZR 46  2.65
    2.0399   C  47 56.62   H  50 41.13   ZR 46  2.08
    1.1244   O  11 94.23   ZR 46  3.77
    1.6583   C  47 72.85   ZR 46 26.89
    1.6190   C  51 74.39   ZR 46 25.34
    1.5184   N  16 80.46   C   9  7.66   ZR 46  6.98   C  17  2.06
    2.4174   C   2 59.29   C   9 17.92   C   1 16.78   C   5  4.27
    2.5793   C   7 54.21   C   5 26.49   C   9 14.89   C   1  3.80
    2.6971   C   3 51.20   C   1 29.23   C   5 14.58   C   9  4.39
    2.6095   C  18 53.61   C  20 28.04   C  17 12.30   C  21  4.51
    2.8481   C  19 48.58   C  17 30.36   C  21 14.30   C  20  4.91
    2.8019   C  22 49.71   C  21 28.86   C  20 15.63   C  17  4.45


                     LOCALIZED ORBITALS 






    ROOT NO.    1           2           3           4           5           6

           -27.76537   -25.41321   -25.12489   -24.59418   -24.25735   -24.21452
  
  
  S  C   1   0.01361     0.02406     0.00878    -0.01323     0.39462     0.02174
 PX  C   1   0.00286     0.01038    -0.00069    -0.01556     0.40912     0.02131
 PY  C   1  -0.01588    -0.00769    -0.01891     0.00866    -0.20836    -0.00205
 PZ  C   1   0.01118     0.01746     0.00041    -0.00942     0.32330    -0.00584
  
  S  C   2  -0.01724    -0.26315     0.02023     0.01382     0.49440    -0.47599
 PX  C   2   0.02317    -0.43084     0.03149    -0.03143    -0.33826     0.00319
 PY  C   2  -0.00168     0.13595     0.00650     0.01190     0.19908     0.09352
 PZ  C   2   0.01380     0.20487     0.02485     0.01514    -0.35258    -0.52912
  
  S  C   3  -0.00183    -0.01576    -0.00186    -0.00305    -0.01029     0.00307
 PX  C   3   0.00001    -0.02115    -0.00170    -0.00261     0.00166     0.00013
 PY  C   3   0.00242     0.00576     0.00269     0.00004    -0.00313    -0.00236
 PZ  C   3   0.00220     0.01141     0.00149    -0.00015     0.02003    -0.00219
  
  S  H   4  -0.00060     0.00769    -0.00045     0.00534    -0.01561    -0.02485
  
  S  C   5  -0.00083    -0.00353     0.00048    -0.01465    -0.00853     0.00546
 PX  C   5   0.00163    -0.00158     0.00443    -0.01286    -0.00188     0.00171
 PY  C   5   0.00594     0.00030     0.00936     0.00729    -0.00382    -0.00451
 PZ  C   5   0.00107    -0.00003     0.00127    -0.01443     0.00610     0.00288
  
  S  H   6   0.00105     0.00620     0.00085    -0.00180     0.02605    -0.00188
  
  S  C   7   0.00160    -0.01430     0.00311     0.02411    -0.00108     0.01850
 PX  C   7   0.00095    -0.02096     0.00216     0.00435    -0.00045     0.02005
 PY  C   7  -0.00285     0.00791    -0.00355     0.00076     0.00004    -0.00719
 PZ  C   7  -0.00182     0.00848    -0.00071    -0.01944    -0.00165     0.00923
  
  S  H   8   0.00032    -0.00280    -0.00040     0.00468     0.00404    -0.00232
  
  S  C   9  -0.01009     0.02098    -0.01788    -0.38095    -0.02855    -0.41698
 PX  C   9  -0.00959    -0.00646    -0.00368    -0.39484    -0.02277    -0.09707
 PY  C   9  -0.00362     0.01007    -0.01752     0.18921     0.01613    -0.03757
 PZ  C   9   0.00261    -0.02590     0.01449    -0.31257     0.00357     0.53365
  
  S  H  10  -0.00102     0.00648    -0.00156     0.00446     0.00238    -0.02451
  
  S  O  11   0.78294    -0.33188    -0.33882     0.01026    -0.00962     0.01811
 PX  O  11   0.40589     0.71613     0.08166    -0.00958     0.00221    -0.00664
 PY  O  11   0.00027    -0.14587     0.23360     0.00218    -0.00029    -0.00426
 PZ  O  11   0.29410    -0.15686     0.70014     0.00334    -0.00471    -0.01861
  
  S  C  12  -0.01541     0.01656    -0.21505    -0.00169    -0.00266    -0.01942
 PX  C  12   0.01145     0.02320     0.04023     0.00127    -0.00114     0.00109
 PY  C  12   0.00305     0.00312    -0.17290    -0.00302     0.00234    -0.01794
 PZ  C  12   0.01673     0.01891    -0.49201    -0.00790     0.00588    -0.04975
  
  S  H  13   0.01401     0.00906     0.01157    -0.00006     0.00239    -0.00109
  
  S  H  14  -0.00800    -0.01960     0.01192     0.00096     0.00354     0.00332
  
  S  H  15   0.01135     0.00248     0.01058     0.00028     0.00226     0.00122
  
  S  N  16   0.00111     0.01086    -0.00460    -0.33978     0.01444     0.02372
 PX  N  16   0.00152    -0.00565    -0.00187     0.57816    -0.02031    -0.01396
 PY  N  16   0.00369     0.00254    -0.00102    -0.18308     0.00376    -0.00019
 PZ  N  16   0.00424    -0.00611     0.00053     0.24184    -0.00170     0.01924
  
  S  C  17   0.00486    -0.00184     0.00286     0.02352    -0.00636    -0.02538
 PX  C  17   0.00186     0.00056    -0.00055     0.05325    -0.00209    -0.00408
 PY  C  17   0.00194    -0.00069     0.00202    -0.02421    -0.00067    -0.00648
 PZ  C  17  -0.00542     0.00431    -0.00353    -0.03064     0.01067     0.03984
  
  S  C  18   0.00107     0.00066     0.00025    -0.01444     0.00192     0.00321
 PX  C  18   0.00246    -0.00043     0.00084    -0.00046    -0.00039    -0.00231
 PY  C  18  -0.00199    -0.00082    -0.00080     0.02166    -0.00258    -0.00314
 PZ  C  18  -0.00125    -0.00078    -0.00031     0.00867    -0.00131    -0.00122
  
  S  C  19  -0.00077     0.00021    -0.00079     0.00607    -0.00018     0.00117
 PX  C  19   0.00107     0.00050     0.00027    -0.01562     0.00158     0.00239
 PY  C  19  -0.00315    -0.00041    -0.00177     0.02359    -0.00206    -0.00027
 PZ  C  19   0.00047    -0.00030     0.00037    -0.00053     0.00021     0.00007
  
  S  C  20  -0.00036    -0.00062    -0.00005     0.00317    -0.00090    -0.00227
 PX  C  20   0.00057     0.00025     0.00020     0.00141    -0.00010    -0.00035
 PY  C  20  -0.00065    -0.00034    -0.00019    -0.00004    -0.00020    -0.00059
 PZ  C  20   0.00083     0.00113     0.00016    -0.00378     0.00145     0.00346
  
  S  C  21   0.00040    -0.00024     0.00027    -0.00020    -0.00043    -0.00168
 PX  C  21  -0.00001    -0.00009     0.00027    -0.00630     0.00037     0.00016
 PY  C  21   0.00046     0.00010    -0.00014     0.00718    -0.00041    -0.00043
 PZ  C  21  -0.00057     0.00049    -0.00044     0.00078     0.00072     0.00283
  
  S  C  22   0.00018    -0.00003     0.00008     0.00041    -0.00014    -0.00050
 PX  C  22  -0.00133    -0.00029    -0.00059     0.00864    -0.00096    -0.00052
 PY  C  22   0.00175     0.00034     0.00073    -0.01008     0.00107     0.00052
 PZ  C  22  -0.00007    -0.00003    -0.00001    -0.00129     0.00016     0.00033
  
  S  H  23  -0.00032     0.00009    -0.00021     0.00019     0.00012     0.00069
  
  S  H  24  -0.00015    -0.00018    -0.00002     0.00008    -0.00018    -0.00045
  
  S  H  25   0.00011     0.00027     0.00001    -0.00226     0.00052     0.00103
  
  S  C  26   0.00269    -0.00187     0.00120    -0.00371     0.00073    -0.00112
 PX  C  26  -0.00157    -0.00152     0.00005    -0.00291    -0.00031    -0.00188
 PY  C  26   0.00122     0.00195     0.00024     0.00323    -0.00023     0.00060
 PZ  C  26   0.00065     0.00381    -0.00005     0.00194     0.00042     0.00335
  
  S  C  27   0.00595     0.00138     0.00066     0.00141     0.00085     0.00095
 PX  C  27  -0.00079    -0.00119     0.00022    -0.00207    -0.00022    -0.00098
 PY  C  27  -0.00254     0.00057    -0.00024     0.00186    -0.00015     0.00034
 PZ  C  27  -0.00741    -0.00306     0.00024    -0.00541    -0.00093    -0.00218
  
  S  H  28   0.00563    -0.00050     0.00091    -0.00213    -0.00032    -0.00276
  
  S  H  29  -0.00168    -0.00082    -0.00038    -0.00011    -0.00050    -0.00059
  
  S  H  30  -0.00168    -0.00046    -0.00058    -0.00216    -0.00014    -0.00010
  
  S  C  31  -0.00060     0.00028    -0.00041     0.00164    -0.00021     0.00025
 PX  C  31   0.00175    -0.00005     0.00075    -0.00151     0.00042    -0.00025
 PY  C  31   0.00058    -0.00017     0.00026    -0.00087     0.00017    -0.00022
 PZ  C  31   0.00086    -0.00043     0.00050    -0.00173     0.00029    -0.00047
  
  S  H  32   0.00036     0.00011     0.00003    -0.00005     0.00007     0.00012
  
  S  H  33  -0.00001    -0.00010     0.00001    -0.00014    -0.00004    -0.00009
  
  S  H  34  -0.00055    -0.00063    -0.00013    -0.00088    -0.00007    -0.00036
  
  S  H  35  -0.00099    -0.00422     0.00033    -0.00272    -0.00066    -0.00420
  
  S  C  36   0.00010    -0.00026     0.00009    -0.00136    -0.00001     0.00069
 PX  C  36   0.00009     0.00007     0.00004    -0.00203     0.00012    -0.00034
 PY  C  36   0.00009    -0.00052     0.00004     0.00007    -0.00011     0.00124
 PZ  C  36  -0.00001     0.00004    -0.00001     0.00035    -0.00001    -0.00011
  
  S  C  37   0.00007     0.00041    -0.00022     0.00275     0.00034     0.00152
 PX  C  37   0.00012     0.00026    -0.00002    -0.00129     0.00036     0.00089
 PY  C  37   0.00022     0.00026    -0.00003    -0.00004     0.00038     0.00139
 PZ  C  37   0.00003    -0.00027     0.00032    -0.00519     0.00011    -0.00060
  
  S  H  38   0.00001     0.00020    -0.00015     0.00003     0.00007    -0.00124
  
  S  H  39   0.00002     0.00006    -0.00001     0.00033     0.00004     0.00007
  
  S  H  40  -0.00004     0.00005    -0.00000     0.00023     0.00001    -0.00002
  
  S  C  41  -0.00018    -0.00013    -0.00004     0.00065    -0.00015     0.00004
 PX  C  41   0.00010     0.00007     0.00003    -0.00012     0.00005    -0.00004
 PY  C  41  -0.00046    -0.00030    -0.00010     0.00105    -0.00031    -0.00002
 PZ  C  41   0.00001     0.00002     0.00000    -0.00017     0.00002    -0.00002
  
  S  H  42   0.00021    -0.00016     0.00028    -0.00695     0.00005    -0.00178
  
  S  H  43  -0.00002     0.00004    -0.00005     0.00053     0.00000     0.00007
  
  S  H  44  -0.00002    -0.00002    -0.00001     0.00014    -0.00004    -0.00009
  
  S  H  45   0.00011     0.00004     0.00005    -0.00073     0.00011     0.00012
  
  S Zr  46   0.16683     0.03281     0.04188     0.04432     0.02554     0.00319
 PX Zr  46  -0.13718     0.01799    -0.04601     0.00187    -0.01045     0.04754
 PY Zr  46  -0.01505    -0.01419     0.01331    -0.03183    -0.00093    -0.00803
 PZ Zr  46  -0.16646    -0.03946    -0.01713     0.04577    -0.02017     0.01418
 X2 Zr  46   0.08250    -0.02748     0.04225    -0.02092     0.00471    -0.03390
 XZ Zr  46   0.20964     0.01674     0.05652    -0.05687     0.02426    -0.01675
 Z2 Zr  46   0.07647     0.06977    -0.01835     0.04043     0.00870     0.01655
 YZ Zr  46   0.02669     0.02341    -0.01265    -0.03327     0.00863     0.00716
 XY Zr  46   0.01671     0.01139    -0.01066     0.03206     0.00239     0.01404
  
  S  C  47   0.01097     0.00005     0.00022    -0.00083     0.00050    -0.00331
 PX  C  47  -0.00374     0.00250     0.00208     0.00322     0.00065     0.00375
 PY  C  47   0.00617     0.00008    -0.00426    -0.00107    -0.00034    -0.00271
 PZ  C  47  -0.00005     0.00154    -0.00199    -0.00131     0.00033     0.00056
  
  S  H  48   0.00132     0.00071    -0.00063     0.00226    -0.00011     0.00004
  
  S  H  49   0.00268    -0.00147     0.00256    -0.00142    -0.00010    -0.00180
  
  S  H  50   0.00058     0.00117    -0.00125    -0.00149     0.00016    -0.00031
  
  S  C  51   0.00853    -0.00192     0.00131    -0.00239     0.00028    -0.00399
 PX  C  51  -0.00143     0.00161     0.00134     0.00511     0.00069     0.00351
 PY  C  51  -0.00543     0.00338    -0.00087     0.00516     0.00012     0.00433
 PZ  C  51   0.00575    -0.00007    -0.00323    -0.00251    -0.00033    -0.00358
  
  S  H  52  -0.00263    -0.00033    -0.00059    -0.00053    -0.00045     0.00016
  
  S  H  53   0.00227    -0.00094     0.00190    -0.00361     0.00031    -0.00154
  
  S  H  54   0.00587     0.00159     0.00060    -0.00068     0.00027    -0.00165




    ROOT NO.    7           8           9          10          11          12

           -23.71074   -23.46690   -23.25623   -23.15683   -23.05182   -23.01591
  
  
  S  C   1  -0.00436    -0.00084    -0.42695    -0.00893    -0.00006     0.00210
 PX  C   1  -0.00347     0.00064     0.49455     0.00629    -0.00094     0.00310
 PY  C   1   0.00346     0.00454    -0.15116    -0.00072    -0.00177     0.00012
 PZ  C   1  -0.00200     0.00099    -0.24518    -0.00286    -0.00056     0.00196
  
  S  C   2   0.02575    -0.03508     0.02948    -0.00655    -0.00145    -0.00296
 PX  C   2  -0.00444    -0.05349     0.05445    -0.00435    -0.00348     0.00555
 PY  C   2  -0.00078     0.01985    -0.01570     0.00191    -0.00372     0.00485
 PZ  C   2   0.02478     0.01051    -0.03638    -0.00518    -0.00078    -0.00346
  
  S  C   3  -0.00041    -0.01007    -0.40554    -0.01131    -0.00046     0.00039
 PX  C   3  -0.00083    -0.00180    -0.49007     0.02035     0.00139    -0.00134
 PY  C   3  -0.00103     0.00046     0.15833    -0.00752     0.00368    -0.00418
 PZ  C   3  -0.00026    -0.00605     0.22762    -0.00583     0.00018    -0.00071
  
  S  H   4   0.00340     0.00333     0.00687     0.00324    -0.00016    -0.00100
  
  S  C   5   0.00219    -0.01102     0.01092     0.41345     0.00113     0.00122
 PX  C   5   0.00155     0.00595    -0.01885     0.40855     0.00048     0.00240
 PY  C   5  -0.00148    -0.00674     0.00829    -0.21746    -0.00227     0.00158
 PZ  C   5   0.00148    -0.02147    -0.00776     0.31971     0.00014     0.00163
  
  S  H   6   0.00014     0.00395     0.01143     0.02634     0.00014     0.00037
  
  S  C   7  -0.01383     0.39570     0.00996     0.42801    -0.00244    -0.00002
 PX  C   7  -0.01049     0.49245    -0.00254    -0.40117     0.00078     0.00279
 PY  C   7   0.00634    -0.17463     0.00145     0.20320    -0.00494     0.00444
 PZ  C   7   0.00501    -0.22314    -0.00531    -0.35011    -0.00403     0.00048
  
  S  H   8  -0.00136     0.02675    -0.02664    -0.01338     0.00009    -0.00028
  
  S  C   9  -0.02466     0.46232     0.00377    -0.01966    -0.00168     0.02063
 PX  C   9  -0.04048    -0.47749     0.00292    -0.01689     0.00793     0.01867
 PY  C   9   0.00340     0.13421     0.00017     0.01086     0.01666    -0.02950
 PZ  C   9   0.02865     0.22440    -0.00259    -0.03041     0.00125     0.01089
  
  S  H  10   0.00245    -0.01082    -0.00385    -0.00727     0.00629    -0.00046
  
  S  O  11   0.00576     0.01645    -0.01673     0.00071    -0.00056     0.00034
 PX  O  11   0.00116    -0.02664     0.02843    -0.00250    -0.00108     0.00299
 PY  O  11  -0.00126     0.00337    -0.00481     0.00034     0.00029    -0.00007
 PZ  O  11   0.00270    -0.00196    -0.00384     0.00086    -0.00115     0.00140
  
  S  C  12  -0.00233    -0.00707     0.00133    -0.00021     0.00028     0.00093
 PX  C  12  -0.00044     0.00196    -0.00212     0.00002     0.00039    -0.00010
 PY  C  12  -0.00162    -0.00770     0.00378    -0.00010    -0.00008     0.00065
 PZ  C  12  -0.00420    -0.02051     0.01271    -0.00001    -0.00026     0.00192
  
  S  H  13   0.00108    -0.00096     0.00119    -0.00006    -0.00037     0.00026
  
  S  H  14   0.00045     0.00384    -0.00144     0.00039    -0.00000    -0.00014
  
  S  H  15   0.00163     0.00037     0.00238     0.00015    -0.00053     0.00022
  
  S  N  16   0.36391    -0.01043    -0.00099     0.01551    -0.01214    -0.02127
 PX  N  16  -0.15144     0.00165     0.00338    -0.02218    -0.00739     0.02229
 PY  N  16  -0.10212    -0.00703    -0.00031     0.00738    -0.00442    -0.00130
 PZ  N  16   0.63502     0.01518     0.00114    -0.00948    -0.00954     0.00102
  
  S  C  17   0.35318    -0.00631     0.00061    -0.00192     0.46363     0.44360
 PX  C  17  -0.01439     0.00392     0.00003    -0.00214    -0.38314     0.38374
 PY  C  17   0.11597    -0.00626     0.00025     0.00121    -0.33360     0.25243
 PZ  C  17  -0.52238     0.00457    -0.00090     0.00480     0.19189     0.29025
  
  S  C  18  -0.02007     0.00056    -0.00018     0.00115    -0.02390     0.42765
 PX  C  18   0.01910    -0.00245     0.00009    -0.00005    -0.00898    -0.37194
 PY  C  18   0.01359     0.00031     0.00024    -0.00142    -0.00862    -0.23620
 PZ  C  18  -0.00691    -0.00001     0.00024    -0.00103     0.02523    -0.34868
  
  S  C  19  -0.02277     0.00031     0.00008    -0.00007     0.41842    -0.02220
 PX  C  19  -0.01241    -0.00197    -0.00006     0.00245     0.33741     0.00135
 PY  C  19  -0.01595     0.00307     0.00016    -0.00282     0.36869    -0.00087
 PZ  C  19  -0.01165     0.00016    -0.00000     0.00009    -0.23960     0.02531
  
  S  C  20   0.01390    -0.00024     0.00003    -0.00044    -0.00401    -0.01258
 PX  C  20   0.00420    -0.00056     0.00011     0.00070    -0.00059    -0.01436
 PY  C  20   0.00359     0.00048    -0.00014    -0.00099    -0.00217    -0.01673
 PZ  C  20  -0.01978     0.00052    -0.00007     0.00061     0.00353     0.00093
  
  S  C  21   0.01472    -0.00005     0.00003    -0.00039    -0.01332    -0.00470
 PX  C  21   0.00086    -0.00058    -0.00008    -0.00058     0.01103    -0.00393
 PY  C  21  -0.00222     0.00091     0.00010     0.00053     0.01606     0.00557
 PZ  C  21  -0.02172     0.00015    -0.00003     0.00071     0.00960     0.00461
  
  S  C  22   0.00293    -0.00016     0.00001    -0.00004    -0.00697    -0.00665
 PX  C  22  -0.00173     0.00113     0.00006    -0.00082     0.00531    -0.00218
 PY  C  22   0.00310    -0.00155    -0.00006     0.00097     0.00031    -0.00603
 PZ  C  22  -0.00146    -0.00003    -0.00001     0.00010     0.00273     0.00129
  
  S  H  23  -0.00496    -0.00001    -0.00001     0.00010     0.02632     0.00236
  
  S  H  24   0.00212    -0.00003     0.00000    -0.00011     0.00284     0.00309
  
  S  H  25  -0.00544     0.00016    -0.00006     0.00031     0.00251     0.02743
  
  S  C  26  -0.01151    -0.00020     0.00008     0.00041     0.01770    -0.02101
 PX  C  26   0.00179    -0.00034    -0.00006     0.00001    -0.01573    -0.00192
 PY  C  26   0.00774     0.00013     0.00013    -0.00036    -0.01373     0.00364
 PZ  C  26   0.00270     0.00016     0.00016    -0.00005     0.01312    -0.02318
  
  S  C  27  -0.00115    -0.00023     0.00034    -0.00003    -0.00084    -0.00204
 PX  C  27   0.00068    -0.00014    -0.00011     0.00002    -0.00003     0.00083
 PY  C  27  -0.00133     0.00065    -0.00002    -0.00016     0.00110    -0.00035
 PZ  C  27   0.00037    -0.00096    -0.00055     0.00061     0.00120    -0.00234
  
  S  H  28  -0.00066    -0.00118     0.00011     0.00022     0.00105    -0.00026
  
  S  H  29   0.00067     0.00017    -0.00015    -0.00013     0.00098     0.00202
  
  S  H  30   0.00190     0.00002    -0.00016     0.00007    -0.00162     0.00319
  
  S  C  31   0.00123     0.00038    -0.00003    -0.00021    -0.00269     0.01206
 PX  C  31  -0.00191    -0.00030     0.00010     0.00020     0.00312    -0.01387
 PY  C  31  -0.00092    -0.00017     0.00004     0.00012     0.00129    -0.00569
 PZ  C  31  -0.00151    -0.00041     0.00006     0.00024     0.00314    -0.01610
  
  S  H  32  -0.00021    -0.00005     0.00001     0.00004     0.00215    -0.00344
  
  S  H  33   0.00008    -0.00005    -0.00002     0.00002    -0.00049     0.00111
  
  S  H  34  -0.00069    -0.00017    -0.00005     0.00010    -0.00051     0.00117
  
  S  H  35  -0.00060    -0.00107    -0.00015     0.00032    -0.00059    -0.00234
  
  S  C  36   0.00072     0.00065     0.00019    -0.00012     0.00615    -0.00155
 PX  C  36   0.00132    -0.00038    -0.00007     0.00028     0.01191    -0.00263
 PY  C  36  -0.00037     0.00156     0.00032    -0.00023    -0.00408     0.00101
 PZ  C  36  -0.00014    -0.00010    -0.00003    -0.00010    -0.00373     0.00068
  
  S  C  37  -0.00622    -0.00333     0.00008     0.00058    -0.02229     0.01553
 PX  C  37  -0.00307    -0.00091     0.00002     0.00039    -0.00174     0.01309
 PY  C  37  -0.00399     0.00076    -0.00001    -0.00027    -0.00038     0.01305
 PZ  C  37  -0.00095     0.00405    -0.00012     0.00019    -0.02002     0.01648
  
  S  H  38   0.00034    -0.00228    -0.00024     0.00051     0.00180    -0.00074
  
  S  H  39  -0.00028    -0.00002    -0.00002     0.00017     0.00123    -0.00046
  
  S  H  40  -0.00041     0.00029    -0.00003    -0.00002    -0.00201     0.00193
  
  S  C  41   0.00021     0.00100     0.00001    -0.00049     0.00599    -0.00129
 PX  C  41  -0.00026    -0.00044     0.00001     0.00019    -0.00475     0.00071
 PY  C  41   0.00067     0.00169     0.00000    -0.00088     0.01171    -0.00210
 PZ  C  41   0.00011    -0.00006     0.00000     0.00007    -0.00205     0.00030
  
  S  H  42   0.00417     0.00640    -0.00012     0.00009    -0.00527     0.00116
  
  S  H  43  -0.00024    -0.00035     0.00001     0.00002     0.00123    -0.00046
  
  S  H  44   0.00035     0.00008    -0.00001    -0.00005     0.00202    -0.00051
  
  S  H  45  -0.00024     0.00002    -0.00001     0.00011    -0.00204     0.00181
  
  S Zr  46  -0.04570     0.02598     0.00725    -0.00691     0.02919    -0.00797
 PX Zr  46   0.04863    -0.01013    -0.00383     0.00433    -0.01916    -0.01318
 PY Zr  46   0.00831    -0.00783    -0.00184     0.00386     0.00066    -0.01259
 PZ Zr  46   0.00742     0.02033    -0.00828    -0.00546     0.00861     0.01862
 X2 Zr  46  -0.05136     0.00471     0.00060    -0.00088     0.01520     0.00173
 XZ Zr  46   0.01188    -0.02455     0.00705     0.00727    -0.01863    -0.01014
 Z2 Zr  46   0.05718    -0.00235     0.00674    -0.00199    -0.00599     0.00569
 YZ Zr  46  -0.00168    -0.00689     0.00293     0.00418    -0.00037    -0.01264
 XY Zr  46  -0.01865     0.01026     0.00136    -0.00378    -0.00252     0.01302
  
  S  C  47   0.00017    -0.00076     0.00088    -0.00028    -0.00001     0.00190
 PX  C  47  -0.00139     0.00203    -0.00063    -0.00010     0.00146    -0.00223
 PY  C  47   0.00371    -0.00222     0.00127    -0.00024    -0.00201     0.00349
 PZ  C  47  -0.00078    -0.00039     0.00034     0.00021    -0.00004    -0.00081
  
  S  H  48   0.00104     0.00039     0.00005    -0.00034    -0.00066     0.00157
  
  S  H  49   0.00026    -0.00038    -0.00028     0.00017    -0.00048     0.00064
  
  S  H  50  -0.00037    -0.00042     0.00012     0.00027     0.00012    -0.00042
  
  S  C  51   0.00013    -0.00061     0.00050    -0.00014     0.00030     0.00181
 PX  C  51  -0.00236     0.00226    -0.00038    -0.00039     0.00119    -0.00164
 PY  C  51  -0.00158     0.00195    -0.00030    -0.00036     0.00082    -0.00141
 PZ  C  51   0.00430    -0.00250     0.00111     0.00005    -0.00083     0.00167
  
  S  H  52  -0.00057     0.00005    -0.00029     0.00009    -0.00014     0.00039
  
  S  H  53   0.00056    -0.00079    -0.00026     0.00050    -0.00049    -0.00002
  
  S  H  54   0.00267    -0.00118     0.00052     0.00008    -0.00043     0.00042




    ROOT NO.   13          14          15          16          17          18

           -22.92124   -22.80102   -22.65399   -22.49217   -22.45301   -22.43990
  
  
  S  C   1   0.00109    -0.00964     0.00283     0.00005     0.00055    -0.00002
 PX  C   1   0.00133     0.01272     0.00023     0.00009     0.00030    -0.00008
 PY  C   1  -0.00061    -0.00868    -0.00539    -0.00001    -0.00100    -0.00013
 PZ  C   1   0.00099     0.01998     0.00096     0.00004     0.00033    -0.00005
  
  S  C   2  -0.00280    -0.00850    -0.02202     0.00010    -0.00252     0.00013
 PX  C   2   0.00144     0.00395    -0.01964     0.00021    -0.00072    -0.00009
 PY  C   2   0.00093    -0.00325    -0.01182     0.00005    -0.00125    -0.00017
 PZ  C   2  -0.00331     0.00739    -0.01438     0.00009    -0.00295     0.00022
  
  S  C   3   0.00013     0.41598    -0.00135     0.00000    -0.00000    -0.00002
 PX  C   3  -0.00015    -0.07288     0.00359    -0.00003     0.00060     0.00005
 PY  C   3  -0.00066    -0.06338     0.01326    -0.00011     0.00142     0.00017
 PZ  C   3  -0.00017     0.56507     0.00212    -0.00003     0.00014     0.00003
  
  S  H   4  -0.00070     0.02814    -0.00167    -0.00000    -0.00053     0.00003
  
  S  C   5   0.00044     0.41412    -0.00274     0.00007     0.00038     0.00002
 PX  C   5   0.00086     0.08843    -0.00358     0.00009     0.00022    -0.00001
 PY  C   5   0.00055     0.05066    -0.00481     0.00005    -0.00068    -0.00007
 PZ  C   5   0.00063    -0.55933    -0.00368     0.00007     0.00020    -0.00000
  
  S  H   6   0.00020    -0.01076     0.00022     0.00002     0.00010     0.00000
  
  S  C   7   0.00055    -0.01029     0.01653    -0.00011     0.00088    -0.00020
 PX  C   7   0.00126     0.01917     0.00627     0.00009     0.00057    -0.00018
 PY  C   7   0.00029    -0.00599    -0.02239     0.00009    -0.00229    -0.00012
 PZ  C   7  -0.00029    -0.01333    -0.01442     0.00002    -0.00049    -0.00002
  
  S  H   8  -0.00002    -0.01369     0.00171    -0.00001     0.00003    -0.00002
  
  S  C   9   0.00721    -0.00909    -0.00639     0.00036     0.00292    -0.00022
 PX  C   9   0.00769     0.00709     0.05628     0.00018     0.00653    -0.00010
 PY  C   9  -0.00828    -0.00213     0.05526    -0.00067     0.00277     0.00083
 PZ  C   9   0.00350    -0.00415    -0.01528     0.00021     0.00166    -0.00003
  
  S  H  10  -0.00055     0.02713     0.00048     0.00016    -0.00065     0.00012
  
  S  O  11  -0.00004     0.00000     0.00300     0.00009    -0.00051     0.00014
 PX  O  11   0.00137    -0.00108    -0.00020     0.00021     0.00001     0.00006
 PY  O  11   0.00007     0.00083     0.00424    -0.00001     0.00026    -0.00010
 PZ  O  11   0.00038     0.00141    -0.00436     0.00016    -0.00056     0.00015
  
  S  C  12   0.00042     0.00028     0.00218     0.00003     0.00028    -0.00002
 PX  C  12  -0.00007    -0.00010     0.00336    -0.00002     0.00013    -0.00001
 PY  C  12   0.00039     0.00047    -0.00098     0.00003     0.00012     0.00000
 PZ  C  12   0.00107     0.00314    -0.00214     0.00009     0.00033    -0.00002
  
  S  H  13   0.00012     0.00020    -0.00081     0.00005    -0.00015     0.00002
  
  S  H  14  -0.00013     0.00058     0.00075    -0.00001    -0.00006     0.00000
  
  S  H  15   0.00004     0.00083    -0.00219     0.00004    -0.00029     0.00005
  
  S  N  16  -0.01754     0.00031     0.69668     0.00091    -0.01664     0.00088
 PX  N  16   0.01094    -0.00106     0.49391     0.00004     0.00560    -0.00080
 PY  N  16   0.00295     0.00081     0.14618    -0.00063     0.00252    -0.00060
 PZ  N  16  -0.02003    -0.00135    -0.20537     0.00229    -0.02433     0.00256
  
  S  C  17   0.02197     0.00062    -0.00942    -0.00760     0.02319    -0.00791
 PX  C  17   0.00919    -0.00013     0.04435     0.00496    -0.01158    -0.00659
 PY  C  17   0.01219     0.00041     0.00219     0.00452    -0.00209    -0.00443
 PZ  C  17  -0.03293    -0.00114    -0.01402    -0.00008    -0.03807    -0.00173
  
  S  C  18  -0.44220     0.00001    -0.01566    -0.00798     0.00488    -0.01705
 PX  C  18  -0.00050     0.00042    -0.00328    -0.00054    -0.00335    -0.02652
 PY  C  18   0.08476    -0.00046     0.01206     0.00078    -0.00096    -0.02039
 PZ  C  18  -0.55367    -0.00017     0.01204    -0.00774    -0.00454    -0.00201
  
  S  C  19   0.00360    -0.00016     0.01594    -0.01438    -0.42882    -0.00859
 PX  C  19   0.00036     0.00006    -0.00005     0.01932    -0.00081     0.00019
 PY  C  19   0.00286    -0.00020     0.02393     0.01870     0.07282     0.00104
 PZ  C  19  -0.00286    -0.00013     0.00023    -0.00098    -0.55808    -0.00764
  
  S  C  20  -0.40956     0.00008     0.00329    -0.00975     0.00933     0.41786
 PX  C  20  -0.02631    -0.00034    -0.00049    -0.00504    -0.00412    -0.40396
 PY  C  20  -0.07095     0.00048     0.00090    -0.00184    -0.00536    -0.33984
 PZ  C  20   0.55753    -0.00009    -0.00399    -0.02275     0.00244     0.21785
  
  S  C  21   0.00864     0.00011    -0.00227     0.41887    -0.41152    -0.01010
 PX  C  21   0.00460     0.00058    -0.00158     0.36151    -0.02025     0.00685
 PY  C  21   0.00248    -0.00065     0.00373     0.29119    -0.06959     0.00700
 PZ  C  21   0.00337    -0.00025     0.00248     0.32511     0.56448    -0.02103
  
  S  C  22   0.01102     0.00002    -0.00072     0.41599     0.01137     0.41079
 PX  C  22   0.01132    -0.00026     0.00565    -0.37346    -0.01351     0.38531
 PY  C  22   0.00743     0.00032    -0.00741    -0.26870    -0.01224     0.34928
 PZ  C  22   0.01638     0.00001     0.00004    -0.33892     0.01441    -0.23551
  
  S  H  23  -0.00375    -0.00001     0.00126    -0.01233     0.01224     0.02771
  
  S  H  24  -0.02635     0.00003     0.00034    -0.01118    -0.02729    -0.01216
  
  S  H  25   0.01505    -0.00001    -0.00179     0.02714    -0.00362    -0.01057
  
  S  C  26   0.01821     0.00001     0.00141     0.00107    -0.00085     0.01946
 PX  C  26  -0.01432     0.00010     0.00151    -0.00162     0.00205    -0.02190
 PY  C  26  -0.00539    -0.00004    -0.00530    -0.00086     0.00039    -0.01515
 PZ  C  26  -0.01915    -0.00019    -0.00702     0.00011    -0.00191     0.00895
  
  S  C  27  -0.00718    -0.00005    -0.00424    -0.00032    -0.00011    -0.00197
 PX  C  27  -0.00708     0.00011    -0.00008    -0.00016     0.00007    -0.00149
 PY  C  27   0.01132    -0.00013     0.00292     0.00038     0.00014     0.00267
 PZ  C  27  -0.00457     0.00013     0.00164    -0.00033     0.00043    -0.00065
  
  S  H  28   0.00038     0.00015     0.00298     0.00004     0.00002     0.00087
  
  S  H  29   0.00237     0.00006     0.00478     0.00018     0.00000     0.00190
  
  S  H  30  -0.00300     0.00013    -0.00362     0.00001    -0.00018    -0.00152
  
  S  C  31   0.00749    -0.00000     0.00277    -0.00062     0.00045     0.00215
 PX  C  31  -0.00454    -0.00002    -0.00240    -0.00038    -0.00038     0.00045
 PY  C  31  -0.00203     0.00000    -0.00092    -0.00035    -0.00013     0.00073
 PZ  C  31  -0.00575     0.00000    -0.00252    -0.00086    -0.00021    -0.00005
  
  S  H  32  -0.00369    -0.00001    -0.00039     0.00077    -0.00036    -0.00066
  
  S  H  33  -0.00132     0.00001    -0.00047     0.00026     0.00000    -0.00113
  
  S  H  34  -0.00078     0.00003    -0.00023     0.00054     0.00010    -0.00203
  
  S  H  35  -0.01426     0.00016     0.00065    -0.00046    -0.00012    -0.00350
  
  S  C  36   0.00028    -0.00037    -0.00071     0.00121     0.00299    -0.00053
 PX  C  36   0.00030     0.00017    -0.00079    -0.00035     0.00057     0.00006
[...]




    ROOT NO.   55          56          57          58          59          60

           -17.23287   -14.71556   -14.70733   -14.49117   -14.34210   -13.97085
  
  
  S  C   1  -0.01363     0.00036    -0.00008    -0.00223    -0.00186    -0.00039
 PX  C   1  -0.03230    -0.00017    -0.00044    -0.00703     0.14583    -0.07030
 PY  C   1  -0.05041     0.00101    -0.00270    -0.00960     0.37736    -0.17919
 PZ  C   1  -0.02010    -0.00065     0.00043    -0.00416     0.06417    -0.03103
  
  S  C   2  -0.00130    -0.00803     0.00351     0.00662    -0.00574     0.00096
 PX  C   2   0.01163    -0.01783     0.01319    -0.03788     0.28396    -0.00192
 PY  C   2   0.06421     0.00648    -0.00072    -0.07682     0.70402    -0.00626
 PZ  C   2  -0.01939     0.00935    -0.00781    -0.00128     0.12870    -0.00322
  
  S  C   3   0.00216    -0.00134     0.00088    -0.00026    -0.00001    -0.00008
 PX  C   3   0.00509    -0.00233     0.00106     0.01962    -0.02687     0.01863
 PY  C   3   0.00598    -0.00007    -0.00146     0.05161    -0.06968     0.04606
 PZ  C   3  -0.00023     0.00108    -0.00114     0.00924    -0.01164     0.00712
  
  S  H   4  -0.00015     0.00133    -0.00135     0.00179     0.00135    -0.00071
  
  S  C   5  -0.00006    -0.00072     0.00028     0.00134    -0.00086     0.00186
 PX  C   5   0.01479    -0.00104     0.00165    -0.01091    -0.07682     0.19172
 PY  C   5   0.03801    -0.00107     0.00393    -0.02922    -0.18958     0.47197
 PZ  C   5   0.00514    -0.00085     0.00090    -0.00316    -0.02990     0.07370
  
  S  H   6  -0.00188     0.00020    -0.00013    -0.00023    -0.00005     0.00010
  
  S  C   7  -0.00283    -0.00179     0.00259    -0.01356     0.00509     0.01806
 PX  C   7  -0.00643    -0.00353     0.00484    -0.03941     0.02100     0.28035
 PY  C   7  -0.00530     0.00183    -0.00040    -0.06287     0.03218     0.67434
 PZ  C   7   0.00055     0.00184    -0.00197    -0.00183     0.00176     0.09197
  
  S  H   8  -0.00015    -0.00059     0.00073    -0.00190     0.00119     0.00064
  
  S  C   9   0.01427    -0.00060    -0.00143     0.00145    -0.00347     0.00190
 PX  C   9  -0.02408    -0.00307    -0.00149     0.06987     0.14838     0.13059
 PY  C   9  -0.05777     0.00713    -0.01327     0.26246     0.39269     0.35932
 PZ  C   9  -0.02635    -0.00616     0.00235     0.05310     0.05488     0.05212
  
  S  H  10   0.00203     0.00108    -0.00087     0.00045    -0.00008    -0.00097
  
  S  O  11   0.04161     0.01250    -0.01096     0.00751    -0.00652    -0.00060
 PX  O  11   0.13845    -0.00730     0.00555    -0.00299     0.00780     0.00050
 PY  O  11   0.91058    -0.00349     0.00370    -0.00380     0.02639    -0.00071
 PZ  O  11  -0.30367    -0.00303     0.00229    -0.00206     0.01928    -0.00024
  
  S  C  12   0.00105    -0.00404     0.00373    -0.00612     0.01897    -0.00030
 PX  C  12   0.00616     0.00281    -0.00389     0.00172    -0.00321     0.00042
 PY  C  12   0.03694    -0.00624     0.00711    -0.00507     0.00504     0.00185
 PZ  C  12  -0.00871    -0.01618     0.01593    -0.01537     0.03853     0.00118
  
  S  H  13   0.03002    -0.00171     0.00086     0.00039    -0.00760     0.00088
  
  S  H  14   0.00695     0.00217    -0.00069     0.00144    -0.00429     0.00064
  
  S  H  15  -0.03622     0.00052    -0.00016     0.00018     0.00204    -0.00049
  
  S  N  16   0.00846     0.01110    -0.00716    -0.18531     0.00027     0.00083
 PX  N  16   0.00369    -0.00463     0.00598     0.06532    -0.00269    -0.00469
 PY  N  16  -0.00131    -0.00277    -0.00568     0.83826    -0.03476    -0.03328
 PZ  N  16  -0.00204     0.00034    -0.00402     0.25154    -0.01246    -0.01015
  
  S  C  17  -0.00412    -0.00233     0.00167     0.00310     0.00467     0.00283
 PX  C  17   0.00047     0.00290     0.00117    -0.03806     0.00579     0.00543
 PY  C  17  -0.00167    -0.00291    -0.00266     0.13373    -0.01105    -0.01039
 PZ  C  17   0.00654     0.00654    -0.00727     0.03558    -0.01116    -0.00761
  
  S  C  18  -0.00103     0.00161    -0.00171    -0.02469     0.00433     0.00392
 PX  C  18  -0.00178    -0.00185    -0.00223     0.04158    -0.00801    -0.00807
 PY  C  18  -0.00018    -0.00008     0.00227    -0.02257     0.00635     0.00597
 PZ  C  18   0.00082    -0.00008     0.00053     0.00774    -0.00292    -0.00233
  
  S  C  19   0.00095    -0.00069     0.00052     0.01706    -0.00314    -0.00294
 PX  C  19   0.00019    -0.00137    -0.00192     0.05378    -0.01192    -0.01081
 PY  C  19   0.00152    -0.00058     0.00364    -0.03111     0.00664     0.00553
 PZ  C  19  -0.00049     0.00095    -0.00046    -0.01011     0.00257     0.00313
  
  S  C  20  -0.00014    -0.00156     0.00113     0.00319     0.00001    -0.00026
 PX  C  20  -0.00011     0.00071     0.00019     0.00199     0.00053     0.00078
 PY  C  20   0.00013    -0.00115    -0.00005     0.00064    -0.00065    -0.00106
 PZ  C  20   0.00036     0.00256    -0.00199    -0.00292    -0.00036     0.00013
  
  S  C  21  -0.00056    -0.00026     0.00031    -0.00318     0.00116     0.00082
 PX  C  21   0.00010    -0.00074    -0.00089     0.01484    -0.00298    -0.00325
 PY  C  21  -0.00028     0.00111     0.00083    -0.01635     0.00364     0.00397
 PZ  C  21   0.00088     0.00060    -0.00047     0.00210    -0.00145    -0.00085
  
  S  C  22  -0.00023    -0.00001     0.00000    -0.00024     0.00015     0.00006
 PX  C  22   0.00020     0.00028     0.00163    -0.02044     0.00549     0.00525
 PY  C  22  -0.00055    -0.00038    -0.00198     0.02541    -0.00667    -0.00642
 PZ  C  22   0.00010    -0.00009    -0.00013     0.00261    -0.00073    -0.00064
  
  S  H  23   0.00027    -0.00016     0.00006     0.00266    -0.00083    -0.00086
  
  S  H  24  -0.00006    -0.00035     0.00028    -0.00000     0.00019     0.00012
  
  S  H  25   0.00014     0.00045    -0.00039    -0.00248     0.00056     0.00055
  
  S  C  26  -0.00063    -0.00311    -0.00905    -0.00486     0.00236     0.00096
 PX  C  26  -0.00141    -0.00536    -0.00658     0.00016     0.00134     0.00014
 PY  C  26   0.00246     0.00735     0.00557    -0.00681    -0.00015     0.00105
 PZ  C  26   0.00085     0.01015     0.00487     0.00204    -0.00378    -0.00153
  
  S  C  27  -0.00202     0.00651     0.00924    -0.01532    -0.00091     0.00003
 PX  C  27   0.00206     0.00101    -0.00367     0.00267     0.00092     0.00037
 PY  C  27   0.00051    -0.00256    -0.00081     0.00152    -0.00118    -0.00084
 PZ  C  27   0.00521    -0.00014    -0.01829     0.02496    -0.00006    -0.00239
  
  S  H  28   0.00166     0.00278    -0.02244     0.00185     0.00497     0.00200
  
  S  H  29   0.00111    -0.00265     0.00445     0.00591    -0.00000    -0.00026
  
  S  H  30  -0.00162    -0.00441    -0.00316     0.00062     0.00147     0.00207
  
  S  C  31   0.00027    -0.00232     0.00382     0.00084    -0.00059    -0.00033
 PX  C  31  -0.00002     0.00362    -0.00486    -0.00104     0.00044     0.00027
 PY  C  31  -0.00019     0.00199    -0.00203    -0.00012     0.00019     0.00012
 PZ  C  31  -0.00050     0.00300    -0.00484    -0.00073     0.00066     0.00044
  
  S  H  32   0.00001     0.00021    -0.00024     0.00034    -0.00015    -0.00012
  
  S  H  33   0.00027     0.00021     0.00012    -0.00062     0.00032     0.00023
  
  S  H  34  -0.00046    -0.00099    -0.00076    -0.00077     0.00076     0.00037
  
  S  H  35  -0.00023     0.02568    -0.00454    -0.01045     0.00553     0.00361
  
  S  C  36  -0.00010    -0.00019     0.00001     0.00108    -0.00074     0.00257
 PX  C  36  -0.00000    -0.00029    -0.00004     0.00298    -0.00148    -0.00310
 PY  C  36  -0.00022    -0.00005     0.00010    -0.00166     0.00048     0.00319
 PZ  C  36  -0.00002     0.00005    -0.00001    -0.00062     0.00029     0.00116
  
  S  C  37  -0.00051     0.00068    -0.00089     0.00815     0.00371     0.00530
 PX  C  37  -0.00001     0.00037    -0.00052     0.00345     0.00039     0.00117
 PY  C  37  -0.00015     0.00052    -0.00054     0.00136     0.00103    -0.00090
 PZ  C  37   0.00118    -0.00024     0.00051    -0.00856    -0.00617    -0.00664
  
  S  H  38   0.00002    -0.00001    -0.00001     0.00050     0.00029    -0.01025
  
  S  H  39  -0.00007     0.00004    -0.00010     0.00155     0.00028    -0.00071
  
  S  H  40   0.00010     0.00008     0.00004    -0.00117     0.00005    -0.00040
  
  S  C  41   0.00027    -0.00012     0.00034    -0.00314    -0.00002    -0.00063
 PX  C  41   0.00001     0.00000    -0.00014     0.00130     0.00011     0.00039
 PY  C  41   0.00043    -0.00027     0.00073    -0.00583    -0.00012    -0.00098
 PZ  C  41  -0.00012     0.00002    -0.00003     0.00016     0.00020    -0.00001
  
  S  H  42   0.00032    -0.00023     0.00041    -0.01244    -0.00485    -0.00998
  
  S  H  43  -0.00017     0.00004    -0.00005     0.00067     0.00071     0.00065
  
  S  H  44   0.00003     0.00002     0.00010    -0.00094    -0.00003    -0.00011
  
  S  H  45   0.00001     0.00004    -0.00015     0.00110    -0.00050    -0.00050
  
  S Zr  46   0.00257     0.20694    -0.19342     0.03882    -0.04579    -0.02170
 PX Zr  46   0.00362     0.20714    -0.16248     0.00426    -0.01554    -0.00050
 PY Zr  46   0.08519    -0.23574    -0.25581     0.13347    -0.00181    -0.00875
 PZ Zr  46  -0.01456     0.02794     0.10311     0.01676    -0.00741    -0.00458
 X2 Zr  46   0.00184    -0.05084     0.12285     0.04059     0.00316    -0.00440
 XZ Zr  46  -0.00454     0.02096     0.07869    -0.06764     0.02411     0.01555
 Z2 Zr  46   0.05878    -0.19080     0.12692     0.06529    -0.03947    -0.01332
 YZ Zr  46  -0.11217    -0.05041     0.17502     0.07678    -0.00980    -0.01024
 XY Zr  46  -0.11912    -0.29137    -0.21341    -0.18383     0.00664     0.01310
  
  S  C  47  -0.00142     0.43069    -0.00946    -0.00104     0.00066    -0.00006
 PX  C  47   0.00180    -0.48039     0.00383     0.00247    -0.00267    -0.00082
 PY  C  47  -0.00888     0.55783    -0.00139    -0.01182     0.00332     0.00194
 PZ  C  47  -0.00707     0.03222     0.00121     0.00292    -0.00106    -0.00069
  
  S  H  48  -0.00236     0.00382    -0.00305    -0.00993     0.00212     0.00164
  
  S  H  49   0.00534     0.00318    -0.00119    -0.00075     0.00176     0.00074
  
  S  H  50  -0.00405     0.00320     0.00142     0.00542    -0.00075    -0.00095
  
  S  C  51  -0.00730     0.00869    -0.42944     0.00486     0.00049    -0.00038
 PX  C  51   0.00998    -0.00093     0.48185    -0.00391    -0.00074     0.00003
 PY  C  51   0.00421    -0.00450     0.38391    -0.00377    -0.00286    -0.00074
 PZ  C  51   0.00592     0.00074    -0.42421     0.01010    -0.00029    -0.00118
  
  S  H  52  -0.00592     0.00137    -0.00174    -0.00156     0.00072     0.00013
  
  S  H  53  -0.00595     0.00344    -0.00038     0.00044     0.00214     0.00081
  
  S  H  54   0.00986    -0.00112    -0.00241     0.00464     0.00034    -0.00021




    ROOT NO.   61          62          63          64

           -13.81012   -13.66341   -13.46575   -13.34370
  
  
  S  C   1  -0.00028    -0.00139    -0.00174     0.00107
 PX  C   1   0.19380    -0.00122    -0.00099     0.00079
 PY  C   1   0.49751     0.00219     0.00356    -0.00217
 PZ  C   1   0.08486    -0.00115    -0.00106     0.00076
  
  S  C   2  -0.00225     0.00074     0.00135    -0.00067
 PX  C   2   0.00133     0.00212     0.00133    -0.00147
 PY  C   2   0.00857     0.00924     0.01059    -0.00762
 PZ  C   2   0.00321     0.00288     0.00365    -0.00236
  
  S  C   3   0.00091    -0.00054    -0.00102     0.00039
 PX  C   3   0.26031    -0.00280    -0.00299     0.00239
 PY  C   3   0.65779    -0.00690    -0.00761     0.00587
 PZ  C   3   0.10742    -0.00159    -0.00226     0.00123
  
  S  H   4   0.00143     0.00045     0.00052    -0.00038
  
  S  C   5   0.00088    -0.00059     0.00059     0.00054
 PX  C   5   0.14095     0.00021     0.00271    -0.00054
 PY  C   5   0.35065     0.00315     0.00572    -0.00357
 PZ  C   5   0.05491    -0.00047    -0.00013     0.00040
  
  S  H   6   0.00005    -0.00021    -0.00003     0.00019
  
  S  C   7  -0.00385     0.00105    -0.00329    -0.00124
 PX  C   7  -0.02696     0.00682     0.00853    -0.00496
 PY  C   7  -0.05240     0.00744     0.00648    -0.00549
 PZ  C   7  -0.00585    -0.00205    -0.00596     0.00078
  
  S  H   8  -0.00100     0.00084     0.00094    -0.00064
  
  S  C   9   0.00243    -0.01610    -0.02200     0.01241
 PX  C   9  -0.07373    -0.02271    -0.03218     0.01881
 PY  C   9  -0.19413    -0.01093    -0.02215     0.01178
 PZ  C   9  -0.02695    -0.01654    -0.02140     0.01297
  
  S  H  10   0.00019     0.00161     0.01495    -0.00151
  
  S  O  11   0.00168    -0.00172    -0.00134     0.00095
 PX  O  11  -0.00308    -0.00182    -0.00184     0.00119
 PY  O  11  -0.00543     0.00068     0.00070    -0.00050
 PZ  O  11  -0.00307    -0.00081    -0.00004     0.00017
  
  S  C  12  -0.00204     0.00113     0.00131    -0.00096
 PX  C  12  -0.00014    -0.00006    -0.00014     0.00009
 PY  C  12  -0.00364     0.00067     0.00087    -0.00060
 PZ  C  12  -0.00756     0.00223     0.00270    -0.00194
  
  S  H  13  -0.00177    -0.00053    -0.00047     0.00036
  
  S  H  14  -0.00088    -0.00023    -0.00022     0.00015
  
  S  H  15   0.00088    -0.00050    -0.00038     0.00031
  
  S  N  16  -0.00091     0.00766     0.00828    -0.00565
 PX  N  16   0.00318    -0.00412    -0.01792     0.00511
 PY  N  16   0.02407    -0.01048     0.00720     0.00558
 PZ  N  16   0.00803    -0.01352    -0.01421     0.00919
  
  S  C  17  -0.00215    -0.00006    -0.01129    -0.00077
 PX  C  17  -0.00434    -0.22084    -0.34529     0.13477
 PY  C  17   0.00761     0.26670     0.42203    -0.15860
 PZ  C  17   0.00603     0.05556     0.07865    -0.03480
  
  S  C  18  -0.00306     0.01137     0.00432    -0.00087
 PX  C  18   0.00605    -0.44270    -0.04965     0.04459
 PY  C  18  -0.00465     0.57776     0.05874    -0.05666
 PZ  C  18   0.00206     0.07842     0.00480    -0.00563
  
  S  C  19   0.00207    -0.00346    -0.00584     0.00402
 PX  C  19   0.00885     0.04744    -0.49030    -0.05261
 PY  C  19  -0.00497    -0.05511     0.49046     0.06106
 PZ  C  19  -0.00198    -0.00422     0.06929     0.00538
  
  S  C  20   0.00015     0.00357    -0.00078    -0.00040
 PX  C  20  -0.00056    -0.32629     0.13625    -0.24389
 PY  C  20   0.00070     0.41517    -0.17394     0.30962
 PZ  C  20  -0.00002     0.03964    -0.01644     0.03004
  
  S  C  21  -0.00069    -0.00079     0.00177    -0.00160
 PX  C  21   0.00244     0.13987    -0.25084    -0.35479
 PY  C  21  -0.00301    -0.15908     0.28175     0.40176
 PZ  C  21   0.00082    -0.01431     0.02689     0.03665
  
  S  C  22  -0.00009    -0.00061     0.00014    -0.00583
 PX  C  22  -0.00425    -0.03732     0.04339    -0.44783
 PY  C  22   0.00521     0.04279    -0.05146     0.54158
 PZ  C  22   0.00056     0.00450    -0.00471     0.05679
  
  S  H  23   0.00064     0.00021    -0.00147    -0.00003
  
  S  H  24  -0.00010    -0.00005    -0.00023    -0.00021
  
  S  H  25  -0.00045     0.00148    -0.00024     0.00036
  
  S  C  26  -0.00076     0.00440     0.00246    -0.00214
 PX  C  26  -0.00027    -0.02996     0.00156     0.00416
 PY  C  26  -0.00072     0.04645    -0.00308    -0.00497
 PZ  C  26   0.00146    -0.00016    -0.00228     0.00070
  
  S  C  27  -0.00039    -0.01609    -0.00208     0.00267
 PX  C  27  -0.00012    -0.00891    -0.00048     0.00189
 PY  C  27   0.00082     0.01519     0.00302    -0.00376
 PZ  C  27   0.00195    -0.01212    -0.00444     0.00418
  
  S  H  28  -0.00191     0.00086    -0.00142     0.00052
  
  S  H  29   0.00024     0.00219     0.00124    -0.00061
  
  S  H  30  -0.00087     0.00659     0.00096    -0.00030
  
  S  C  31   0.00024     0.00105    -0.00036     0.00043
 PX  C  31  -0.00015     0.00180    -0.00044     0.00070
 PY  C  31  -0.00005    -0.00289     0.00087    -0.00152
 PZ  C  31  -0.00026    -0.00147     0.00030    -0.00010
  
  S  H  32   0.00009    -0.00082     0.00011    -0.00038
  
  S  H  33  -0.00020    -0.00189     0.00047    -0.00081
  
  S  H  34  -0.00036     0.00184    -0.00012     0.00057
  
  S  H  35  -0.00294     0.01791     0.00377    -0.00461
  
  S  C  36   0.00054     0.00290    -0.01320    -0.00334
 PX  C  36   0.00116     0.00285    -0.01367    -0.00346
 PY  C  36  -0.00021    -0.00049     0.00491    -0.00003
 PZ  C  36  -0.00040    -0.00037     0.00616    -0.00008
  
  S  C  37  -0.00215     0.00149    -0.00177    -0.00056
 PX  C  37  -0.00020     0.00528    -0.03822     0.00120
 PY  C  37  -0.00035    -0.00179     0.03256    -0.00281
 PZ  C  37   0.00345     0.00147     0.00230    -0.00146
  
  S  H  38   0.00054     0.00003     0.00138     0.00022
  
  S  H  39  -0.00019    -0.00015     0.00030     0.00110
  
  S  H  40  -0.00017    -0.00125     0.00448     0.00216
  
  S  C  41   0.00005    -0.00347     0.01344     0.00415
 PX  C  41  -0.00010     0.00128    -0.00597    -0.00051
 PY  C  41   0.00012    -0.00405     0.01258     0.00438
 PZ  C  41  -0.00013    -0.00046    -0.00413     0.00098
  
  S  H  42   0.00241     0.00040     0.00031    -0.00046
  
  S  H  43  -0.00043     0.00004    -0.00085    -0.00141
  
  S  H  44   0.00001    -0.00050    -0.00225     0.00005
  
  S  H  45   0.00036     0.00212    -0.00503    -0.00300
  
  S Zr  46   0.02373     0.01211     0.01145    -0.00803
 PX Zr  46   0.00084     0.00376    -0.00189     0.00040
 PY Zr  46   0.00706    -0.00252    -0.00557     0.00459
 PZ Zr  46   0.00396     0.00132    -0.00474     0.00032
 X2 Zr  46   0.00224     0.00865     0.00492    -0.00366
 XZ Zr  46  -0.01383     0.01328     0.00474    -0.00478
 Z2 Zr  46   0.01461    -0.00716    -0.01311     0.00685
 YZ Zr  46   0.00817     0.00605     0.00474    -0.00207
 XY Zr  46  -0.01091     0.01584     0.01601    -0.01155
  
  S  C  47   0.00001     0.00028    -0.00001    -0.00004
 PX  C  47   0.00102     0.00008     0.00023    -0.00022
 PY  C  47  -0.00189    -0.00005    -0.00072     0.00013
 PZ  C  47   0.00057     0.00058     0.00048    -0.00020
  
  S  H  48  -0.00146    -0.00000     0.00000    -0.00014
  
  S  H  49  -0.00084     0.00057    -0.00007    -0.00004
  
  S  H  50   0.00068    -0.00093    -0.00040     0.00037
  
  S  C  51   0.00037    -0.00091    -0.00080     0.00053
 PX  C  51   0.00009     0.00104     0.00126    -0.00092
 PY  C  51   0.00069     0.00113     0.00109    -0.00085
 PZ  C  51   0.00076    -0.00275    -0.00250     0.00186
  
  S  H  52  -0.00038     0.00064     0.00023    -0.00030
  
  S  H  53  -0.00079     0.00010    -0.00030     0.00009
  
  S  H  54  -0.00003    -0.00147    -0.00156     0.00104

          BONDING CONTRIBUTION OF EACH M.O.

  0.9152  1.7532  1.7803  2.0035  1.9845  1.9928  1.9630  1.9958  2.0086  1.9979
  1.9827  1.9846  1.9971  1.9942  1.2794  1.9957  1.9961  1.9975  1.9627  1.9413
  1.9889  1.9377  2.0262  1.9537  2.2917  2.0025  2.1589  1.9750  1.9521  1.9360
  1.9456  1.9523  1.9364  1.9334  1.9498  1.9509  1.9457  1.9407  1.9396  1.9967
  1.9996  1.9700  1.9569  2.1281  1.9517  1.9538  1.9478  2.0030  1.9534  1.9480
  2.0385  2.0648  2.0472  2.0250  0.3910  1.5654  1.5026  1.1151  1.7896  1.9537
  1.9804  1.9080  2.0061  2.0168 -0.7356 -1.7780 -1.9277 -1.9835 -1.9006 -1.6932
 -0.8120 -0.8593 -0.8966 -0.7818 -1.6502 -1.9362 -1.6703 -1.8386 -1.7954 -1.8399
 -1.8754 -1.8982 -1.9038 -1.7681 -1.9060 -1.9367 -1.9493 -1.9517 -1.8000 -1.8837
 -1.9360 -1.9062 -1.7017 -1.9479 -1.9558 -1.9341 -1.7813 -1.9412 -1.9694 -1.9234
 -1.9693 -1.9972 -1.9839 -1.9583 -1.9453 -1.9405 -1.9051 -1.6733 -1.7936 -1.9686
 -1.8322 -1.9554 -1.7999 -1.9508 -1.9599 -1.9738 -1.8903 -1.9700 -1.9566 -1.9546
 -1.9120 -1.9643 -1.9205 -1.9546 -1.9133 -1.9147 -1.9815 -1.9220 -1.9171 -1.8546
 -1.8543

 **********************
 *                    *
 * JOB ENDED NORMALLY *
 *                    *
 **********************



 TOTAL JOB TIME:            15.28 SECONDS

 == MOPAC DONE ==
