 *******************************************************************************
 ** Site#: 14762        For non-commercial use only    Version 17.165L 64BITS **
 *******************************************************************************
 ** Cite this program as: MOPAC2016, Version: 17.165L, James J. P. Stewart,   **
 ** Stewart Computational Chemistry, web: HTTP://OpenMOPAC.net. Days left: 226**
 *******************************************************************************
 **                                                                           **
 **                                MOPAC2016                                  **
 **                                                                           **
 *******************************************************************************

                              PM6 CALCULATION RESULTS


 *******************************************************************************
 *  CALCULATION DONE:                                Tue Oct 31 21:12:48 2017  *
 *  PM6        - The PM6 Hamiltonian to be used
 *
 *
 *
 *                 CHARGE ON SYSTEM =    +1
 *
 *
 *
 *  NOSYM      - POINT-GROUP SYMMETRY SET TO C1
 *  T=         - A TIME OF     12.0 MINUTES REQUESTED
 *  DUMP=N     - RESTART FILE WRITTEN EVERY  7200.000 SECONDS
 *  GNORM=     - EXIT WHEN GRADIENT NORM DROPS BELOW   5.00    
 *  AUX        - OUTPUT AUXILIARY INFORMATION
 *  LOCALIZE   - LOCALIZED ORBITALS TO BE PRINTED
 *******************************************************************************
 PM6 NOSYM T=12M GNORM=5.000000 CHARGE=1 AUX LOCALIZE
   MOPAC run
   ready to go?
   ATOM   CHEMICAL          X               Y               Z
  NUMBER   SYMBOL      (ANGSTROMS)     (ANGSTROMS)     (ANGSTROMS)
 
     1       C         -0.35835100  *   1.36242800  *  -2.40087300  *
     2       C          0.72387300  *   0.98420100  *  -1.61104900  *
     3       C         -1.59742600  *   0.79890400  *  -2.10930300  *
     4       H         -0.26077000  *   2.05446800  *  -3.23369100  *
     5       C         -1.72877000  *  -0.11770500  *  -1.04986500  *
     6       H         -2.47388700  *   1.07818700  *  -2.69300000  *
     7       C         -0.63289200  *  -0.50981700  *  -0.29566800  *
     8       H         -2.71608500  *  -0.52494200  *  -0.81544100  *
     9       C          0.65526600  *   0.02088100  *  -0.56124600  *
    10       H         -0.75933600  *  -1.23591900  *   0.51517600  *
    11       O          2.06354700  *   1.51010900  *  -1.80197300  *
    12       C          2.12303700  *   2.75961900  *  -2.57107900  *
    13       H          2.05929000  *   2.49410600  *  -3.63375800  *
    14       H          3.09794700  *   3.21260200  *  -2.32394500  *
    15       H          1.30163400  *   3.41117700  *  -2.24537900  *
    16       N          1.85293400  *  -0.30838000  *   0.09154600  *
    17       C          1.82316000  *  -1.02425300  *   1.34679500  *
    18       C          2.17853100  *  -0.32765400  *   2.52801900  *
    19       C          1.51490500  *  -2.40189300  *   1.39074200  *
    20       C          2.10413500  *  -1.00542300  *   3.75411400  *
    21       C          1.46840900  *  -3.04640800  *   2.63818600  *
    22       C          1.73747300  *  -2.35112900  *   3.81383800  *
    23       H          1.22027600  *  -4.10972800  *   2.68492300  *
    24       H          1.67075300  *  -2.85652400  *   4.77909100  *
    25       H          2.34816800  *  -0.48329000  *   4.68088400  *
    26       C          2.67888800  *   1.10870400  *   2.61810100  *
    27       C          3.77468100  *   1.52050000  *   1.60850400  *
    28       H          4.44358600  *   0.61774000  *   1.33198200  *
    29       H          4.47774600  *   2.21497200  *   2.11173200  *
    30       H          3.34393200  *   2.13963600  *   0.74917600  *
    31       C          1.50303400  *   2.08726700  *   2.57697100  *
    32       H          1.82911800  *   3.13024000  *   2.66764400  *
    33       H          0.81156400  *   1.90424300  *   3.41222600  *
    34       H          0.91156700  *   1.99112400  *   1.65839500  *
    35       H          3.17504300  *   1.20748900  *   3.62853900  *
    36       C         -0.06095600  *  -3.96680900  *   0.21127500  *
    37       C          1.29114600  *  -3.24597600  *   0.14632800  *
    38       H         -0.88694000  *  -3.26158900  *   0.35277800  *
    39       H         -0.10551400  *  -4.69288200  *   1.03223300  *
    40       H         -0.25544300  *  -4.52855700  *  -0.71079800  *
    41       C          2.44596100  *  -4.24684600  *  -0.01158400  *
    42       H          1.28899100  *  -2.60110000  *  -0.76783000  *
    43       H          2.49313200  *  -4.95889400  *   0.82099300  *
    44       H          3.41618900  *  -3.73526300  *  -0.04881700  *
    45       H          2.33461600  *  -4.83492000  *  -0.92910800  *
    46      Zr          3.59507500  *   0.45577000  *  -0.80886100  *
    47       C          5.02875200  *  -1.24537600  *  -0.34810700  *
    48       H          5.86007600  *  -1.20095300  *  -1.05664800  *
    49       H          4.42228900  *  -2.14117400  *  -0.56144100  *
    50       H          5.46700300  *  -1.38435800  *   0.63761000  *
    51       C          5.08135800  *   1.93196200  *  -1.68207500  *
    52       H          5.07550900  *   3.01558700  *  -1.68728100  *
    53       H          5.10367800  *   1.56949100  *  -2.72663400  *
    54       H          6.02672200  *   1.61618600  *  -1.20601500  *
 


          CARTESIAN COORDINATES 

    NO.       ATOM         X         Y         Z

     1         C       -0.3584    1.3624   -2.4009
     2         C        0.7239    0.9842   -1.6110
     3         C       -1.5974    0.7989   -2.1093
     4         H       -0.2608    2.0545   -3.2337
     5         C       -1.7288   -0.1177   -1.0499
     6         H       -2.4739    1.0782   -2.6930
     7         C       -0.6329   -0.5098   -0.2957
     8         H       -2.7161   -0.5249   -0.8154
     9         C        0.6553    0.0209   -0.5612
    10         H       -0.7593   -1.2359    0.5152
    11         O        2.0635    1.5101   -1.8020
    12         C        2.1230    2.7596   -2.5711
    13         H        2.0593    2.4941   -3.6338
    14         H        3.0979    3.2126   -2.3239
    15         H        1.3016    3.4112   -2.2454
    16         N        1.8529   -0.3084    0.0915
    17         C        1.8232   -1.0243    1.3468
    18         C        2.1785   -0.3277    2.5280
    19         C        1.5149   -2.4019    1.3907
    20         C        2.1041   -1.0054    3.7541
    21         C        1.4684   -3.0464    2.6382
    22         C        1.7375   -2.3511    3.8138
    23         H        1.2203   -4.1097    2.6849
    24         H        1.6708   -2.8565    4.7791
    25         H        2.3482   -0.4833    4.6809
    26         C        2.6789    1.1087    2.6181
    27         C        3.7747    1.5205    1.6085
    28         H        4.4436    0.6177    1.3320
    29         H        4.4777    2.2150    2.1117
    30         H        3.3439    2.1396    0.7492
    31         C        1.5030    2.0873    2.5770
    32         H        1.8291    3.1302    2.6676
    33         H        0.8116    1.9042    3.4122
    34         H        0.9116    1.9911    1.6584
    35         H        3.1750    1.2075    3.6285
    36         C       -0.0610   -3.9668    0.2113
    37         C        1.2911   -3.2460    0.1463
    38         H       -0.8869   -3.2616    0.3528
    39         H       -0.1055   -4.6929    1.0322
    40         H       -0.2554   -4.5286   -0.7108
    41         C        2.4460   -4.2468   -0.0116
    42         H        1.2890   -2.6011   -0.7678
    43         H        2.4931   -4.9589    0.8210
    44         H        3.4162   -3.7353   -0.0488
    45         H        2.3346   -4.8349   -0.9291
    46        Zr        3.5951    0.4558   -0.8089
    47         C        5.0288   -1.2454   -0.3481
    48         H        5.8601   -1.2010   -1.0566
    49         H        4.4223   -2.1412   -0.5614
    50         H        5.4670   -1.3844    0.6376
    51         C        5.0814    1.9320   -1.6821
    52         H        5.0755    3.0156   -1.6873
    53         H        5.1037    1.5695   -2.7266
    54         H        6.0267    1.6162   -1.2060

 General Reference for PM6:
 "Optimization of Parameters for Semiempirical Methods V: Modification of NDDO Approximations
 and Application to 70 Elements", J. J. P. Stewart, J. Mol. Mod., 13, 1173-1213 (2007)
 URL: http://www.springerlink.com/content/ar33482301010477/fulltext.pdf

           Empirical Formula: C21 H30 N O Zr  =    54 atoms



      MOLECULAR POINT GROUP   :   C1  


      RHF CALCULATION, NO. OF DOUBLY OCCUPIED LEVELS = 64


          Geometry optimization using L-BFGS
 CYCLE:     1 TIME:   0.203 TIME LEFT: 11.99M  GRAD.:    80.536 HEAT:  102.0855
 CYCLE:     2 TIME:   0.125 TIME LEFT: 11.99M  GRAD.:    79.531 HEAT:  102.0209
 CYCLE:     3 TIME:   0.125 TIME LEFT: 11.99M  GRAD.:    30.229 HEAT:  99.07749
 CYCLE:     4 TIME:   0.125 TIME LEFT: 11.99M  GRAD.:    80.131 HEAT:  102.0238
 CYCLE:     5 TIME:   0.133 TIME LEFT: 11.99M  GRAD.:    32.169 HEAT:  99.10266
 CYCLE:     6 TIME:   0.117 TIME LEFT: 11.98M  GRAD.:    25.905 HEAT:  98.75081
 CYCLE:     7 TIME:   0.117 TIME LEFT: 11.98M  GRAD.:    14.180 HEAT:  98.59302
 CYCLE:     8 TIME:   0.117 TIME LEFT: 11.98M  GRAD.:    15.577 HEAT:  98.35771
 CYCLE:     9 TIME:   0.117 TIME LEFT: 11.98M  GRAD.:    14.477 HEAT:  98.19374
 CYCLE:    10 TIME:   0.117 TIME LEFT: 11.98M  GRAD.:    11.625 HEAT:  98.04157
 CYCLE:    11 TIME:   0.117 TIME LEFT: 11.97M  GRAD.:    12.120 HEAT:  97.86074
 CYCLE:    12 TIME:   0.117 TIME LEFT: 11.97M  GRAD.:    13.486 HEAT:  97.72464
 CYCLE:    13 TIME:   0.109 TIME LEFT: 11.97M  GRAD.:     9.821 HEAT:  97.59383
 CYCLE:    14 TIME:   0.117 TIME LEFT: 11.97M  GRAD.:    10.784 HEAT:  97.51177
 CYCLE:    15 TIME:   0.117 TIME LEFT: 11.97M  GRAD.:     7.283 HEAT:  97.43906
 CYCLE:    16 TIME:   0.117 TIME LEFT: 11.96M  GRAD.:     8.391 HEAT:  97.37284
 CYCLE:    17 TIME:   0.117 TIME LEFT: 11.96M  GRAD.:    14.207 HEAT:  97.28309
 CYCLE:    18 TIME:   0.117 TIME LEFT: 11.96M  GRAD.:     9.063 HEAT:  97.18741
 CYCLE:    19 TIME:   0.117 TIME LEFT: 11.96M  GRAD.:     8.037 HEAT:  97.11320
 CYCLE:    20 TIME:   0.117 TIME LEFT: 11.96M  GRAD.:    10.447 HEAT:  96.98442
 CYCLE:    21 TIME:   0.125 TIME LEFT: 11.95M  GRAD.:    22.795 HEAT:  96.91676
 CYCLE:    22 TIME:   0.117 TIME LEFT: 11.95M  GRAD.:    10.861 HEAT:  96.79749
 CYCLE:    23 TIME:   0.117 TIME LEFT: 11.95M  GRAD.:     9.135 HEAT:  96.68242
 CYCLE:    24 TIME:   0.117 TIME LEFT: 11.95M  GRAD.:    10.115 HEAT:  96.59014
 CYCLE:    25 TIME:   0.125 TIME LEFT: 11.95M  GRAD.:    10.731 HEAT:  96.44590
 CYCLE:    26 TIME:   0.117 TIME LEFT: 11.94M  GRAD.:    18.641 HEAT:  96.34856
 CYCLE:    27 TIME:   0.117 TIME LEFT: 11.94M  GRAD.:     8.450 HEAT:  96.23886
 CYCLE:    28 TIME:   0.117 TIME LEFT: 11.94M  GRAD.:     9.268 HEAT:  96.15899
 CYCLE:    29 TIME:   0.117 TIME LEFT: 11.94M  GRAD.:    24.008 HEAT:  96.08792
 CYCLE:    30 TIME:   0.117 TIME LEFT: 11.94M  GRAD.:     7.942 HEAT:  95.96776
 CYCLE:    31 TIME:   0.109 TIME LEFT: 11.93M  GRAD.:     7.759 HEAT:  95.88335
 CYCLE:    32 TIME:   0.125 TIME LEFT: 11.93M  GRAD.:    13.014 HEAT:  95.73132
 CYCLE:    33 TIME:   0.117 TIME LEFT: 11.93M  GRAD.:    16.732 HEAT:  95.64637
 CYCLE:    34 TIME:   0.125 TIME LEFT: 11.93M  GRAD.:     9.594 HEAT:  95.56382
 CYCLE:    35 TIME:   0.117 TIME LEFT: 11.93M  GRAD.:     8.535 HEAT:  95.45868
 CYCLE:    36 TIME:   0.117 TIME LEFT: 11.92M  GRAD.:     9.280 HEAT:  95.38504
 CYCLE:    37 TIME:   0.117 TIME LEFT: 11.92M  GRAD.:    18.216 HEAT:  95.28057
 CYCLE:    38 TIME:   0.117 TIME LEFT: 11.92M  GRAD.:    10.494 HEAT:  95.20189
 CYCLE:    39 TIME:   0.117 TIME LEFT: 11.92M  GRAD.:     5.090 HEAT:  95.17222
 CYCLE:    40 TIME:   0.117 TIME LEFT: 11.92M  GRAD.:     5.811 HEAT:  95.13850
 CYCLE:    41 TIME:   0.117 TIME LEFT: 11.91M  GRAD.:     6.679 HEAT:  95.09326
 CYCLE:    42 TIME:   0.125 TIME LEFT: 11.91M  GRAD.:    16.228 HEAT:  95.07089
 CYCLE:    43 TIME:   0.109 TIME LEFT: 11.91M  GRAD.:     4.674 HEAT:  95.01324

 -------------------------------------------------------------------------------
 PM6 NOSYM T=12M GNORM=5.000000 CHARGE=1 AUX LOCALIZE
   MOPAC run
   ready to go?


     HERBERTS TEST WAS SATISFIED IN BFGS                      
     SCF FIELD WAS ACHIEVED                                   


                              PM6 CALCULATION
                                                       MOPAC2016 (Version: 17.165L)
                                                       Tue Oct 31 21:12:54 2017
                                                       No. of days remaining = 226




          FINAL HEAT OF FORMATION =         95.01318 KCAL/MOL =     397.53514 KJ/MOL


          TOTAL ENERGY            =      -3504.33686 EV
          ELECTRONIC ENERGY       =     -32258.10743 EV  POINT GROUP:     C1  
          CORE-CORE REPULSION     =      28753.77058 EV
          COSMO AREA              =        352.30 SQUARE ANGSTROMS
          COSMO VOLUME            =        475.81 CUBIC ANGSTROMS

          GRADIENT NORM           =          4.67432
          IONIZATION POTENTIAL    =         10.975175 EV
          HOMO LUMO ENERGIES (EV) =        -10.975 -4.600
          NO. OF FILLED LEVELS    =         64
          MOLECULAR WEIGHT        =        403.6941

          MOLECULAR DIMENSIONS (Angstroms)

            Atom       Atom       Distance
            H    24    H    13    10.05587
            H    54    H     8     9.00142
            H    45    H    32     8.42470


          SCF CALCULATIONS        =         44
 
          WALL-CLOCK TIME         =          5.445 SECONDS
          COMPUTATION TIME        =          5.232 SECONDS



       FINAL  POINT  AND  DERIVATIVES

   PARAMETER     ATOM    TYPE            VALUE       GRADIENT
      1          1  C    CARTESIAN X    -0.387283    -0.483340  KCAL/ANGSTROM
      2          1  C    CARTESIAN Y     1.188354     0.362031  KCAL/ANGSTROM
      3          1  C    CARTESIAN Z    -2.481842    -0.312272  KCAL/ANGSTROM
      4          2  C    CARTESIAN X     0.713089    -0.109611  KCAL/ANGSTROM
      5          2  C    CARTESIAN Y     0.873914     0.252108  KCAL/ANGSTROM
      6          2  C    CARTESIAN Z    -1.686183     0.020641  KCAL/ANGSTROM
      7          3  C    CARTESIAN X    -1.636654    -0.110849  KCAL/ANGSTROM
      8          3  C    CARTESIAN Y     0.714071     0.204651  KCAL/ANGSTROM
      9          3  C    CARTESIAN Z    -2.086762     0.432382  KCAL/ANGSTROM
     10          4  H    CARTESIAN X    -0.283890     0.291806  KCAL/ANGSTROM
     11          4  H    CARTESIAN Y     1.778350    -0.150036  KCAL/ANGSTROM
     12          4  H    CARTESIAN Z    -3.391384    -0.410266  KCAL/ANGSTROM
     13          5  C    CARTESIAN X    -1.765730    -0.581173  KCAL/ANGSTROM
     14          5  C    CARTESIAN Y    -0.071328    -0.791043  KCAL/ANGSTROM
     15          5  C    CARTESIAN Z    -0.927609     0.056192  KCAL/ANGSTROM
     16          6  H    CARTESIAN X    -2.519212     0.398666  KCAL/ANGSTROM
     17          6  H    CARTESIAN Y     0.949504    -0.046866  KCAL/ANGSTROM
     18          6  H    CARTESIAN Z    -2.680936     0.429521  KCAL/ANGSTROM
     19          7  C    CARTESIAN X    -0.657232    -0.223003  KCAL/ANGSTROM
     20          7  C    CARTESIAN Y    -0.400906    -0.259193  KCAL/ANGSTROM
     21          7  C    CARTESIAN Z    -0.159213     0.195549  KCAL/ANGSTROM
     22          8  H    CARTESIAN X    -2.756277    -0.433298  KCAL/ANGSTROM
     23          8  H    CARTESIAN Y    -0.427430    -0.083624  KCAL/ANGSTROM
     24          8  H    CARTESIAN Z    -0.627918     0.422668  KCAL/ANGSTROM
     25          9  C    CARTESIAN X     0.633984     0.368873  KCAL/ANGSTROM
     26          9  C    CARTESIAN Y     0.059625     0.079652  KCAL/ANGSTROM
     27          9  C    CARTESIAN Z    -0.520029     0.520723  KCAL/ANGSTROM
     28         10  H    CARTESIAN X    -0.766654     0.210289  KCAL/ANGSTROM
     29         10  H    CARTESIAN Y    -1.025963    -0.539774  KCAL/ANGSTROM
     30         10  H    CARTESIAN Z     0.730106    -0.463130  KCAL/ANGSTROM
     31         11  O    CARTESIAN X     2.039098    -0.556896  KCAL/ANGSTROM
     32         11  O    CARTESIAN Y     1.320503     0.110595  KCAL/ANGSTROM
     33         11  O    CARTESIAN Z    -2.026133    -0.168665  KCAL/ANGSTROM
     34         12  C    CARTESIAN X     2.103934     0.348744  KCAL/ANGSTROM
     35         12  C    CARTESIAN Y     2.645619     0.059446  KCAL/ANGSTROM
     36         12  C    CARTESIAN Z    -2.651414     0.038554  KCAL/ANGSTROM
     37         13  H    CARTESIAN X     1.858604    -0.098481  KCAL/ANGSTROM
     38         13  H    CARTESIAN Y     2.507051    -0.120569  KCAL/ANGSTROM
     39         13  H    CARTESIAN Z    -3.713003     0.084856  KCAL/ANGSTROM
     40         14  H    CARTESIAN X     3.139368     0.338689  KCAL/ANGSTROM
     41         14  H    CARTESIAN Y     2.999624     0.788191  KCAL/ANGSTROM
     42         14  H    CARTESIAN Z    -2.515649     0.767577  KCAL/ANGSTROM
     43         15  H    CARTESIAN X     1.396536     0.493040  KCAL/ANGSTROM
     44         15  H    CARTESIAN Y     3.316728    -0.553378  KCAL/ANGSTROM
     45         15  H    CARTESIAN Z    -2.146537     0.389929  KCAL/ANGSTROM
     46         16  N    CARTESIAN X     1.820642    -0.359994  KCAL/ANGSTROM
     47         16  N    CARTESIAN Y    -0.232058     0.040594  KCAL/ANGSTROM
     48         16  N    CARTESIAN Z     0.154606    -0.056719  KCAL/ANGSTROM
     49         17  C    CARTESIAN X     1.820779    -0.445675  KCAL/ANGSTROM
     50         17  C    CARTESIAN Y    -0.981889    -0.079531  KCAL/ANGSTROM
     51         17  C    CARTESIAN Z     1.383575    -0.265817  KCAL/ANGSTROM
     52         18  C    CARTESIAN X     2.230733    -0.046914  KCAL/ANGSTROM
     53         18  C    CARTESIAN Y    -0.316721     0.582149  KCAL/ANGSTROM
     54         18  C    CARTESIAN Z     2.564996     0.927282  KCAL/ANGSTROM
     55         19  C    CARTESIAN X     1.504002    -0.303966  KCAL/ANGSTROM
     56         19  C    CARTESIAN Y    -2.362335    -0.080789  KCAL/ANGSTROM
     57         19  C    CARTESIAN Z     1.403769     0.338185  KCAL/ANGSTROM
     58         20  C    CARTESIAN X     2.244860     0.115453  KCAL/ANGSTROM
     59         20  C    CARTESIAN Y    -1.034081     0.039683  KCAL/ANGSTROM
     60         20  C    CARTESIAN Z     3.770549     0.215962  KCAL/ANGSTROM
     61         21  C    CARTESIAN X     1.492056    -0.388123  KCAL/ANGSTROM
     62         21  C    CARTESIAN Y    -3.032383    -1.141032  KCAL/ANGSTROM
     63         21  C    CARTESIAN Z     2.634629    -0.924915  KCAL/ANGSTROM
     64         22  C    CARTESIAN X     1.854361     0.541642  KCAL/ANGSTROM
     65         22  C    CARTESIAN Y    -2.372915     0.164138  KCAL/ANGSTROM
     66         22  C    CARTESIAN Z     3.810524     0.721054  KCAL/ANGSTROM
     67         23  H    CARTESIAN X     1.198763    -0.969106  KCAL/ANGSTROM
     68         23  H    CARTESIAN Y    -4.084839    -0.437474  KCAL/ANGSTROM
     69         23  H    CARTESIAN Z     2.673071     0.014717  KCAL/ANGSTROM
     70         24  H    CARTESIAN X     1.837397    -0.211741  KCAL/ANGSTROM
     71         24  H    CARTESIAN Y    -2.907393     0.263822  KCAL/ANGSTROM
     72         24  H    CARTESIAN Z     4.760708    -0.515562  KCAL/ANGSTROM
     73         25  H    CARTESIAN X     2.553840     0.237779  KCAL/ANGSTROM
     74         25  H    CARTESIAN Y    -0.542395     0.042238  KCAL/ANGSTROM
     75         25  H    CARTESIAN Z     4.695257     0.346493  KCAL/ANGSTROM
     76         26  C    CARTESIAN X     2.641219    -0.007992  KCAL/ANGSTROM
     77         26  C    CARTESIAN Y     1.144500    -0.242525  KCAL/ANGSTROM
     78         26  C    CARTESIAN Z     2.625001    -0.332844  KCAL/ANGSTROM
     79         27  C    CARTESIAN X     3.799429     0.069752  KCAL/ANGSTROM
     80         27  C    CARTESIAN Y     1.511522    -0.026305  KCAL/ANGSTROM
     81         27  C    CARTESIAN Z     1.662023    -0.213124  KCAL/ANGSTROM
     82         28  H    CARTESIAN X     4.447201     0.181294  KCAL/ANGSTROM
     83         28  H    CARTESIAN Y     0.603084     0.264910  KCAL/ANGSTROM
     84         28  H    CARTESIAN Z     1.410978    -0.684069  KCAL/ANGSTROM
     85         29  H    CARTESIAN X     4.495573    -0.041935  KCAL/ANGSTROM
     86         29  H    CARTESIAN Y     2.200860     0.060399  KCAL/ANGSTROM
     87         29  H    CARTESIAN Z     2.184790     0.112138  KCAL/ANGSTROM
     88         30  H    CARTESIAN X     3.431281    -0.165871  KCAL/ANGSTROM
     89         30  H    CARTESIAN Y     2.134345    -0.025028  KCAL/ANGSTROM
     90         30  H    CARTESIAN Z     0.777305    -0.211859  KCAL/ANGSTROM
     91         31  C    CARTESIAN X     1.434143     0.009832  KCAL/ANGSTROM
     92         31  C    CARTESIAN Y     2.063585    -0.122474  KCAL/ANGSTROM
     93         31  C    CARTESIAN Z     2.423527    -0.346221  KCAL/ANGSTROM
     94         32  H    CARTESIAN X     1.707291    -0.190794  KCAL/ANGSTROM
     95         32  H    CARTESIAN Y     3.121441    -0.285327  KCAL/ANGSTROM
     96         32  H    CARTESIAN Z     2.503298    -0.048370  KCAL/ANGSTROM
     97         33  H    CARTESIAN X     0.672275     0.218128  KCAL/ANGSTROM
     98         33  H    CARTESIAN Y     1.876879     0.373027  KCAL/ANGSTROM
     99         33  H    CARTESIAN Z     3.195213    -0.099774  KCAL/ANGSTROM
    100         34  H    CARTESIAN X     0.935198     0.330444  KCAL/ANGSTROM
    101         34  H    CARTESIAN Y     1.913294    -0.220921  KCAL/ANGSTROM
    102         34  H    CARTESIAN Z     1.459729    -0.517806  KCAL/ANGSTROM
    103         35  H    CARTESIAN X     3.035808     0.178636  KCAL/ANGSTROM
    104         35  H    CARTESIAN Y     1.340107    -0.014686  KCAL/ANGSTROM
    105         35  H    CARTESIAN Z     3.662872    -0.406347  KCAL/ANGSTROM
    106         36  C    CARTESIAN X    -0.081103    -0.003211  KCAL/ANGSTROM
    107         36  C    CARTESIAN Y    -3.914655     0.167630  KCAL/ANGSTROM
    108         36  C    CARTESIAN Z     0.196490    -0.082483  KCAL/ANGSTROM
    109         37  C    CARTESIAN X     1.249710     0.025502  KCAL/ANGSTROM
    110         37  C    CARTESIAN Y    -3.158277     0.081219  KCAL/ANGSTROM
    111         37  C    CARTESIAN Z     0.134723     0.446459  KCAL/ANGSTROM
    112         38  H    CARTESIAN X    -0.923188     0.104218  KCAL/ANGSTROM
    113         38  H    CARTESIAN Y    -3.233007     0.306533  KCAL/ANGSTROM
    114         38  H    CARTESIAN Z     0.360941    -0.174635  KCAL/ANGSTROM
    115         39  H    CARTESIAN X    -0.105434    -0.435734  KCAL/ANGSTROM
    116         39  H    CARTESIAN Y    -4.663771     0.171171  KCAL/ANGSTROM
    117         39  H    CARTESIAN Z     0.995842    -0.145539  KCAL/ANGSTROM
    118         40  H    CARTESIAN X    -0.270084     0.231520  KCAL/ANGSTROM
    119         40  H    CARTESIAN Y    -4.448479     0.229565  KCAL/ANGSTROM
    120         40  H    CARTESIAN Z    -0.743513    -0.196215  KCAL/ANGSTROM
    121         41  C    CARTESIAN X     2.434502     0.130298  KCAL/ANGSTROM
    122         41  C    CARTESIAN Y    -4.106745     0.017787  KCAL/ANGSTROM
    123         41  C    CARTESIAN Z    -0.099972     0.005573  KCAL/ANGSTROM
    124         42  H    CARTESIAN X     1.191931     0.165762  KCAL/ANGSTROM
    125         42  H    CARTESIAN Y    -2.474698    -0.333520  KCAL/ANGSTROM
    126         42  H    CARTESIAN Z    -0.749668     0.122096  KCAL/ANGSTROM
    127         43  H    CARTESIAN X     2.553386     0.449149  KCAL/ANGSTROM
    128         43  H    CARTESIAN Y    -4.834202     0.023326  KCAL/ANGSTROM
    129         43  H    CARTESIAN Z     0.711462     0.110219  KCAL/ANGSTROM
    130         44  H    CARTESIAN X     3.382372     0.104203  KCAL/ANGSTROM
    131         44  H    CARTESIAN Y    -3.547775     0.217155  KCAL/ANGSTROM
    132         44  H    CARTESIAN Z    -0.176300     0.405614  KCAL/ANGSTROM
    133         45  H    CARTESIAN X     2.308361     0.099140  KCAL/ANGSTROM
    134         45  H    CARTESIAN Y    -4.677513     0.073604  KCAL/ANGSTROM
    135         45  H    CARTESIAN Z    -1.026982    -0.130640  KCAL/ANGSTROM
    136         46 Zr    CARTESIAN X     3.687527    -0.090758  KCAL/ANGSTROM
    137         46 Zr    CARTESIAN Y     0.444037     0.550419  KCAL/ANGSTROM
    138         46 Zr    CARTESIAN Z    -0.759629    -0.395925  KCAL/ANGSTROM
    139         47  C    CARTESIAN X     4.979607    -0.124389  KCAL/ANGSTROM
    140         47  C    CARTESIAN Y    -1.400983    -0.157116  KCAL/ANGSTROM
    141         47  C    CARTESIAN Z    -0.546221    -0.118670  KCAL/ANGSTROM
    142         48  H    CARTESIAN X     5.806093     0.194578  KCAL/ANGSTROM
    143         48  H    CARTESIAN Y    -1.485019    -0.239934  KCAL/ANGSTROM
    144         48  H    CARTESIAN Z    -1.256479    -0.009102  KCAL/ANGSTROM
    145         49  H    CARTESIAN X     4.381200     0.524615  KCAL/ANGSTROM
    146         49  H    CARTESIAN Y    -2.326246    -0.709574  KCAL/ANGSTROM
    147         49  H    CARTESIAN Z    -0.614118     0.014242  KCAL/ANGSTROM
    148         50  H    CARTESIAN X     5.411064    -0.738546  KCAL/ANGSTROM
    149         50  H    CARTESIAN Y    -1.374155     0.621651  KCAL/ANGSTROM
    150         50  H    CARTESIAN Z     0.465838     0.619602  KCAL/ANGSTROM
    151         51  C    CARTESIAN X     5.175724     0.650569  KCAL/ANGSTROM
    152         51  C    CARTESIAN Y     2.037303     0.891199  KCAL/ANGSTROM
    153         51  C    CARTESIAN Z    -1.349133     0.059027  KCAL/ANGSTROM
    154         52  H    CARTESIAN X     5.122089    -0.144545  KCAL/ANGSTROM
    155         52  H    CARTESIAN Y     3.119163     0.544373  KCAL/ANGSTROM
    156         52  H    CARTESIAN Z    -1.381953    -0.519184  KCAL/ANGSTROM
    157         53  H    CARTESIAN X     5.344372    -0.299553  KCAL/ANGSTROM
    158         53  H    CARTESIAN Y     1.656399    -0.563612  KCAL/ANGSTROM
    159         53  H    CARTESIAN Z    -2.380310    -0.089376  KCAL/ANGSTROM
    160         54  H    CARTESIAN X     6.069963     0.552877  KCAL/ANGSTROM
    161         54  H    CARTESIAN Y     1.768130    -0.358931  KCAL/ANGSTROM
    162         54  H    CARTESIAN Z    -0.756599     0.022279  KCAL/ANGSTROM




   ATOM   CHEMICAL          X               Y               Z
  NUMBER   SYMBOL      (ANGSTROMS)     (ANGSTROMS)     (ANGSTROMS)
 
     1       C         -0.38728312  *   1.18835397  *  -2.48184226  *
     2       C          0.71308939  *   0.87391446  *  -1.68618273  *
     3       C         -1.63665440  *   0.71407106  *  -2.08676197  *
     4       H         -0.28388951  *   1.77835020  *  -3.39138363  *
     5       C         -1.76573018  *  -0.07132832  *  -0.92760930  *
     6       H         -2.51921232  *   0.94950420  *  -2.68093575  *
     7       C         -0.65723207  *  -0.40090585  *  -0.15921316  *
     8       H         -2.75627710  *  -0.42743024  *  -0.62791847  *
     9       C          0.63398438  *   0.05962524  *  -0.52002920  *
    10       H         -0.76665418  *  -1.02596256  *   0.73010616  *
    11       O          2.03909779  *   1.32050315  *  -2.02613261  *
    12       C          2.10393423  *   2.64561946  *  -2.65141362  *
    13       H          1.85860449  *   2.50705108  *  -3.71300312  *
    14       H          3.13936770  *   2.99962357  *  -2.51564882  *
    15       H          1.39653644  *   3.31672791  *  -2.14653722  *
    16       N          1.82064208  *  -0.23205811  *   0.15460577  *
    17       C          1.82077932  *  -0.98188915  *   1.38357493  *
    18       C          2.23073284  *  -0.31672089  *   2.56499602  *
    19       C          1.50400168  *  -2.36233491  *   1.40376945  *
    20       C          2.24486030  *  -1.03408116  *   3.77054871  *
    21       C          1.49205637  *  -3.03238333  *   2.63462878  *
    22       C          1.85436120  *  -2.37291518  *   3.81052437  *
    23       H          1.19876300  *  -4.08483862  *   2.67307091  *
    24       H          1.83739660  *  -2.90739260  *   4.76070801  *
    25       H          2.55383981  *  -0.54239541  *   4.69525709  *
    26       C          2.64121918  *   1.14449997  *   2.62500110  *
    27       C          3.79942863  *   1.51152217  *   1.66202333  *
    28       H          4.44720105  *   0.60308363  *   1.41097767  *
    29       H          4.49557317  *   2.20085976  *   2.18478966  *
    30       H          3.43128086  *   2.13434474  *   0.77730502  *
    31       C          1.43414343  *   2.06358501  *   2.42352742  *
    32       H          1.70729137  *   3.12144131  *   2.50329844  *
    33       H          0.67227482  *   1.87687922  *   3.19521252  *
    34       H          0.93519763  *   1.91329419  *   1.45972904  *
    35       H          3.03580765  *   1.34010706  *   3.66287165  *
    36       C         -0.08110285  *  -3.91465495  *   0.19649007  *
    37       C          1.24971028  *  -3.15827675  *   0.13472293  *
    38       H         -0.92318812  *  -3.23300744  *   0.36094095  *
    39       H         -0.10543363  *  -4.66377066  *   0.99584187  *
    40       H         -0.27008381  *  -4.44847852  *  -0.74351293  *
    41       C          2.43450202  *  -4.10674464  *  -0.09997161  *
    42       H          1.19193079  *  -2.47469825  *  -0.74966781  *
    43       H          2.55338553  *  -4.83420243  *   0.71146203  *
    44       H          3.38237170  *  -3.54777535  *  -0.17629975  *
    45       H          2.30836119  *  -4.67751311  *  -1.02698223  *
    46      Zr          3.68752682  *   0.44403652  *  -0.75962942  *
    47       C          4.97960718  *  -1.40098341  *  -0.54622145  *
    48       H          5.80609301  *  -1.48501906  *  -1.25647879  *
    49       H          4.38119959  *  -2.32624645  *  -0.61411848  *
    50       H          5.41106357  *  -1.37415521  *   0.46583763  *
    51       C          5.17572417  *   2.03730330  *  -1.34913315  *
    52       H          5.12208888  *   3.11916332  *  -1.38195311  *
    53       H          5.34437244  *   1.65639946  *  -2.38030999  *
    54       H          6.06996272  *   1.76812958  *  -0.75659892  *

                             CARTESIAN COORDINATES

   1    C       -0.387283118     1.188353966    -2.481842259
   2    C        0.713089393     0.873914457    -1.686182727
   3    C       -1.636654396     0.714071061    -2.086761974
   4    H       -0.283889509     1.778350203    -3.391383633
   5    C       -1.765730183    -0.071328317    -0.927609295
   6    H       -2.519212322     0.949504204    -2.680935750
   7    C       -0.657232072    -0.400905847    -0.159213164
   8    H       -2.756277100    -0.427430239    -0.627918468
   9    C        0.633984383     0.059625242    -0.520029202
  10    H       -0.766654183    -1.025962561     0.730106156
  11    O        2.039097795     1.320503150    -2.026132611
  12    C        2.103934225     2.645619458    -2.651413621
  13    H        1.858604490     2.507051079    -3.713003116
  14    H        3.139367696     2.999623571    -2.515648819
  15    H        1.396536441     3.316727910    -2.146537224
  16    N        1.820642080    -0.232058107     0.154605769
  17    C        1.820779316    -0.981889145     1.383574928
  18    C        2.230732836    -0.316720891     2.564996021
  19    C        1.504001679    -2.362334913     1.403769447
  20    C        2.244860298    -1.034081163     3.770548707
  21    C        1.492056365    -3.032383331     2.634628782
  22    C        1.854361201    -2.372915176     3.810524368
  23    H        1.198763003    -4.084838617     2.673070907
  24    H        1.837396604    -2.907392600     4.760708010
  25    H        2.553839813    -0.542395411     4.695257089
  26    C        2.641219178     1.144499973     2.625001103
  27    C        3.799428628     1.511522167     1.662023332
  28    H        4.447201052     0.603083632     1.410977673
  29    H        4.495573168     2.200859757     2.184789656
  30    H        3.431280864     2.134344744     0.777305020
  31    C        1.434143427     2.063585014     2.423527425
  32    H        1.707291370     3.121441311     2.503298436
  33    H        0.672274816     1.876879222     3.195212521
  34    H        0.935197631     1.913294192     1.459729044
  35    H        3.035807652     1.340107064     3.662871648
  36    C       -0.081102849    -3.914654947     0.196490069
  37    C        1.249710283    -3.158276748     0.134722934
  38    H       -0.923188116    -3.233007439     0.360940949
  39    H       -0.105433634    -4.663770664     0.995841869
  40    H       -0.270083811    -4.448478523    -0.743512934
  41    C        2.434502025    -4.106744636    -0.099971612
  42    H        1.191930785    -2.474698252    -0.749667812
  43    H        2.553385529    -4.834202435     0.711462026
  44    H        3.382371702    -3.547775354    -0.176299753
  45    H        2.308361195    -4.677513115    -1.026982228
  46   Zr        3.687526820     0.444036518    -0.759629424
  47    C        4.979607183    -1.400983410    -0.546221445
  48    H        5.806093010    -1.485019059    -1.256478788
  49    H        4.381199593    -2.326246453    -0.614118484
  50    H        5.411063566    -1.374155206     0.465837626
  51    C        5.175724170     2.037303299    -1.349133155
  52    H        5.122088875     3.119163324    -1.381953109
  53    H        5.344372439     1.656399464    -2.380309989
  54    H        6.069962718     1.768129581    -0.756598916


           Empirical Formula: C21 H30 N O Zr  =    54 atoms



      MOLECULAR POINT GROUP   :   C1  


                  EIGENVALUES  
 -34.70398 -34.25216 -32.69260 -32.08646 -31.75314 -30.56203 -29.64027 -28.84519
 -28.26444 -28.02032 -27.43690 -27.04377 -26.75932 -26.41493 -25.76171 -24.90036
 -24.56363 -24.30376 -23.70812 -22.40098 -21.47202 -21.43835 -20.73326 -20.16873
 -20.03929 -19.29249 -18.96052 -18.67256 -18.30990 -18.20406 -18.10299 -17.88335
 -17.49951 -17.37977 -17.06325 -16.99390 -16.86508 -16.69911 -16.59243 -16.38976
 -16.21690 -16.02548 -15.91526 -15.70292 -15.60632 -15.51510 -15.42658 -15.37643
 -15.30185 -15.23325 -14.92457 -14.84653 -14.77979 -14.48740 -14.24499 -14.12437
 -13.72281 -13.57627 -13.07232 -12.67768 -12.35992 -11.96536 -11.87275 -10.97517
  -4.60031  -3.10439  -2.75057  -2.65896  -2.49096  -2.24837  -2.13445  -1.91910
  -1.46058  -1.19010  -0.55080  -0.39259  -0.18875  -0.02697   0.40943   0.59534
   0.72780   0.94469   1.24299   1.28199   1.43256   1.46825   1.55859   1.60629
   1.63024   1.70230   1.84587   1.90980   1.95064   1.99297   2.00377   2.17087
   2.25391   2.37885   2.44521   2.58131   2.61278   2.64342   2.67023   2.82530
   2.88724   2.89295   2.97883   3.07022   3.12957   3.24954   3.27886   3.29190
   3.32086   3.35547   3.47201   3.52807   3.57631   3.58916   3.67403   3.75253
   3.78107   3.82586   3.87933   3.92517   4.00703   4.12430   4.16081   4.69533
   4.78567   4.80337   5.36754


              NET ATOMIC CHARGES AND DIPOLE CONTRIBUTIONS

  ATOM NO.   TYPE          CHARGE      No. of ELECS.   s-Pop       p-Pop       d-Pop       
    1          C          -0.128090        4.1281     1.10373     3.02436
    2          C           0.004314        3.9957     1.09363     2.90205
    3          C          -0.204470        4.2045     1.10321     3.10126
    4          H           0.163572        0.8364     0.83643
    5          C          -0.035991        4.0360     1.10869     2.92730
    6          H           0.172318        0.8277     0.82768
    7          C          -0.283066        4.2831     1.10856     3.17451
    8          H           0.160226        0.8398     0.83977
    9          C           0.217446        3.7826     1.07810     2.70445
   10          H           0.189394        0.8106     0.81061
   11          O          -0.299566        6.2996     1.70225     4.59731
   12          C          -0.166800        4.1668     1.12022     3.04658
   13          H           0.163969        0.8360     0.83603
   14          H           0.182704        0.8173     0.81730
   15          H           0.167247        0.8328     0.83275
   16          N          -0.427812        5.4278     1.53181     3.89600
   17          C           0.102612        3.8974     1.08134     2.81605
   18          C          -0.081404        4.0814     1.10546     2.97594
   19          C          -0.042098        4.0421     1.11207     2.93003
   20          C          -0.162356        4.1624     1.10900     3.05336
   21          C          -0.145209        4.1452     1.11052     3.03469
   22          C          -0.132778        4.1328     1.10751     3.02527
   23          H           0.164507        0.8355     0.83549
   24          H           0.160294        0.8397     0.83971
   25          H           0.157213        0.8428     0.84279
   26          C           0.010257        3.9897     1.07950     2.91024
   27          C          -0.438575        4.4386     1.08524     3.35333
   28          H           0.194071        0.8059     0.80593
   29          H           0.186018        0.8140     0.81398
   30          H           0.196199        0.8038     0.80380
   31          C          -0.500301        4.5003     1.08861     3.41169
   32          H           0.157105        0.8429     0.84289
   33          H           0.174888        0.8251     0.82511
   34          H           0.163248        0.8368     0.83675
   35          H           0.137887        0.8621     0.86211
   36          C          -0.493319        4.4933     1.08797     3.40535
   37          C           0.004441        3.9956     1.07558     2.91998
   38          H           0.152613        0.8474     0.84739
   39          H           0.159831        0.8402     0.84017
   40          H           0.160515        0.8395     0.83949
   41          C          -0.495598        4.4956     1.09091     3.40469
   42          H           0.124128        0.8759     0.87587
   43          H           0.161672        0.8383     0.83833
   44          H           0.154191        0.8458     0.84581
   45          H           0.158298        0.8417     0.84170
   46         Zr           1.385385        2.6146     0.25853     0.99075     1.36534
   47          C          -0.844910        4.8449     1.11519     3.72972
   48          H           0.173306        0.8267     0.82669
   49          H           0.178584        0.8214     0.82142
   50          H           0.172311        0.8277     0.82769
   51          C          -0.851431        4.8514     1.11583     3.73560
   52          H           0.165567        0.8344     0.83443
   53          H           0.172975        0.8270     0.82703
   54          H           0.184465        0.8155     0.81553
 DIPOLE           X         Y         Z       TOTAL
 POINT-CHG.     0.809     5.853    -2.170     6.294
 HYBRID         1.627    -0.488    -0.973     1.958
 SUM            2.436     5.364    -3.143     6.677


          ATOMIC ORBITAL ELECTRON POPULATIONS

     Atom    s        px        py        pz      x^2-y^2     xz        z^2       yz        xy
    1  C   1.10373   0.96386   1.02838   1.03211
    2  C   1.09363   0.75457   1.11441   1.03307
    3  C   1.10321   1.03000   1.03693   1.03434
    4  H   0.83643
    5  C   1.10869   1.04323   0.93479   0.94928
    6  H   0.82768
    7  C   1.10856   0.96369   1.10498   1.10583
    8  H   0.83977
    9  C   1.07810   0.89437   0.91971   0.89037
   10  H   0.81061
   11  O   1.70225   1.39813   1.43795   1.76123
   12  C   1.12022   1.17756   0.79023   1.07879
   13  H   0.83603
   14  H   0.81730
   15  H   0.83275
   16  N   1.53181   1.19302   1.46864   1.23434
   17  C   1.08134   1.02125   0.93265   0.86215
   18  C   1.10546   1.03590   0.96874   0.97130
   19  C   1.11207   0.98527   0.95028   0.99448
   20  C   1.10900   1.01589   1.00207   1.03540
   21  C   1.11052   0.99358   1.07348   0.96764
   22  C   1.10751   0.98152   0.99310   1.05065
   23  H   0.83549
   24  H   0.83971
   25  H   0.84279
   26  C   1.07950   0.92950   0.94638   1.03436
   27  C   1.08524   1.11650   1.12328   1.11356
   28  H   0.80593
   29  H   0.81398
   30  H   0.80380
   31  C   1.08861   1.09409   1.12066   1.19694
   32  H   0.84289
   33  H   0.82511
   34  H   0.83675
   35  H   0.86211
   36  C   1.08797   1.06912   1.14776   1.18847
   37  C   1.07558   0.93888   0.98760   0.99350
   38  H   0.84739
   39  H   0.84017
   40  H   0.83949
   41  C   1.09091   1.09232   1.12883   1.18355
   42  H   0.87587
   43  H   0.83833
   44  H   0.84581
   45  H   0.84170
   46 Zr   0.25853   0.37359   0.38571   0.23145   0.21089   0.27599   0.26757   0.16929   0.44158
   47  C   1.11519   1.24154   1.33523   1.15294
   48  H   0.82669
   49  H   0.82142
   50  H   0.82769
   51  C   1.11583   1.36389   1.19675   1.17496
   52  H   0.83443
   53  H   0.82703
   54  H   0.81553

          NUMBER OF ITERATIONS =  76
          LOCALISATION VALUE =  32.411298884

   NUMBER OF CENTERS              (COMPOSITION OF ORBITALS)


    1.3093   O  11 86.40   ZR 46 13.15
    1.8317   O  11 66.67   C   2 31.84
    1.8369   O  11 66.38   C  12 32.20
    2.0748   N  16 54.24   C   9 43.31   ZR 46  1.30
    2.0190   C   2 52.31   C   1 47.08
    2.0493   C   2 51.51   C   9 47.18
    2.0366   N  16 56.60   C  17 41.29   ZR 46  1.23
    2.0410   C   9 51.04   C   7 47.89
    2.0333   C   1 50.91   C   3 48.23
    2.0179   C   7 50.81   C   5 48.73
    2.0330   C  17 49.60   C  18 49.58
    1.4859   N  16 79.76   ZR 46 19.20
    2.0299   C  17 50.63   C  19 48.61
    2.0253   C  18 50.19   C  20 49.18
    2.0145   C   3 50.22   C   5 49.42
    2.0237   C  19 49.95   C  21 49.46
    2.0162   C  20 50.21   C  22 49.38
    2.0159   C  21 49.81   C  22 49.80
    1.9536   C  12 58.17   H  13 41.65
    1.9489   C  12 58.40   H  15 41.48
    1.9683   C  12 58.52   H  14 40.69
    2.2199   C  27 53.47   H  28 40.10   ZR 46  6.14
    2.2068   C  27 53.82   H  30 40.00   ZR 46  5.92
    2.0248   C  18 51.14   C  26 48.21
    1.9740   C   1 57.75   H   4 41.61
    2.0022   C  27 54.98   C  26 44.40
    2.0168   C  19 53.24   C  37 46.08
    1.9704   C   5 57.69   H   8 41.80
    1.9542   C  27 58.91   H  29 40.58
    1.9565   C   7 59.04   H  10 40.31
    2.0222   C  31 50.48   C  26 48.96
    1.9631   C   3 58.27   H   6 41.21
    1.9710   C  20 57.58   H  25 41.93
    1.9679   C  22 57.74   H  24 41.80
    1.9681   C  21 57.91   H  23 41.56
    1.9831   C  26 56.56   H  35 42.93
    1.9636   C  31 57.65   H  32 42.06
    2.0185   C  36 51.16   C  37 48.34
    1.9560   C  31 58.07   H  34 41.72
    2.0254   C  41 51.17   C  37 48.15
    1.9555   C  31 58.48   H  33 41.16
    2.1397   C  51 54.33   H  53 41.27   ZR 46  4.25
    1.9880   C  37 55.96   H  42 43.57
    1.9956   C  51 57.23   H  52 41.64
    2.0883   C  51 55.88   H  54 40.68   ZR 46  3.30
    1.9662   C  36 57.44   H  38 42.26
    1.9740   C  41 57.43   H  44 42.04
    1.9634   C  41 57.70   H  45 42.00
    1.9622   C  36 57.81   H  40 41.89
    1.9577   C  36 57.90   H  39 41.89
    1.9557   C  41 58.01   H  43 41.81
    2.0940   C  47 55.31   H  50 41.31   ZR 46  3.18
    2.0386   C  47 56.56   H  48 41.25   ZR 46  2.07
    2.0574   C  47 56.47   H  49 40.82   ZR 46  2.31
    1.1102   O  11 94.85   ZR 46  3.30
    1.6039   C  51 74.96   ZR 46 24.81
    1.6377   C  47 73.62   ZR 46 26.18
    2.3657   C   2 60.21   C   9 17.62   C   1 16.54   C   5  4.16
    1.5502   N  16 79.39   C   9  8.62   ZR 46  8.45
    2.5570   C   7 54.53   C   5 26.73   C   9 14.45   C   1  3.73
    2.6648   C   3 51.73   C   1 29.27   C   5 14.22   C   9  4.21
    2.8037   C  18 43.19   C  20 40.45   C  17  4.98   C  22  4.69   C  21  3.06
             C  19  3.04
    2.9298   C  17 42.50   C  19 39.08   C  18  5.53   C  21  5.38   C  20  3.35
             C  22  2.95
    2.8865   C  22 41.35   C  21 40.78   C  20  6.43   C  19  6.01   C  18  2.69
             C  17  2.51


                     LOCALIZED ORBITALS 






    ROOT NO.    1           2           3           4           5           6

           -26.38793   -25.18451   -24.71165   -24.54110   -24.07670   -24.06343
  
  
  S  C   1   0.01713     0.02380    -0.00905    -0.01315     0.39390    -0.02128
 PX  C   1   0.01254     0.01158    -0.00347    -0.01716     0.45337    -0.02079
 PY  C   1  -0.01314    -0.00550    -0.01625     0.00201    -0.12311    -0.00203
 PZ  C   1   0.01009     0.01747    -0.01465    -0.01002     0.30807     0.00713
  
  S  C   2  -0.01576    -0.26624    -0.01921     0.01331     0.49393     0.47493
 PX  C   2   0.02317    -0.44645    -0.02959    -0.03395    -0.38291     0.02925
 PY  C   2  -0.00052    -0.17799     0.02898    -0.01359     0.14553    -0.29123
 PZ  C   2   0.02507     0.12861    -0.00615     0.00956    -0.33372     0.45151
  
  S  C   3  -0.00235    -0.01562     0.00181    -0.00313    -0.01028    -0.00314
 PX  C   3  -0.00145    -0.02128     0.00214    -0.00258     0.00284    -0.00076
 PY  C   3  -0.00143    -0.00909     0.00298     0.00017    -0.01157    -0.00241
 PZ  C   3   0.00156     0.00794     0.00053     0.00013     0.01662     0.00074
  
  S  H   4  -0.00068     0.00735     0.00054     0.00538    -0.01569     0.02497
  
  S  C   5  -0.00083    -0.00356    -0.00046    -0.01451    -0.00858    -0.00545
 PX  C   5  -0.00140    -0.00135    -0.00239    -0.01444    -0.00068    -0.00260
 PY  C   5   0.00430    -0.00179     0.01066     0.00716    -0.00189    -0.00212
 PZ  C   5   0.00324    -0.00109     0.00730    -0.01258     0.00683    -0.00536
  
  S  H   6   0.00153     0.00612    -0.00088    -0.00170     0.02605     0.00199
  
  S  C   7   0.00270    -0.01434    -0.00310     0.02352    -0.00109    -0.01827
 PX  C   7   0.00350    -0.02233    -0.00286     0.00329    -0.00068    -0.02116
 PY  C   7   0.00146    -0.00659    -0.00290     0.01105     0.00144     0.00433
 PZ  C   7  -0.00148     0.00586    -0.00143    -0.01595    -0.00084    -0.00784
  
  S  H   8   0.00045    -0.00279     0.00038     0.00464     0.00396     0.00237
  
  S  C   9  -0.01501     0.02065     0.01663    -0.38024    -0.02814     0.41893
 PX  C   9  -0.00602    -0.01098    -0.00010    -0.43479    -0.02592     0.07108
 PY  C   9  -0.01348     0.01540    -0.00909     0.12503    -0.00912     0.32263
 PZ  C   9   0.00049    -0.02172    -0.02493    -0.28958    -0.00403    -0.43264
  
  S  H  10  -0.00157     0.00636     0.00143     0.00472     0.00233     0.02435
  
  S  O  11   0.72313    -0.32435     0.31925     0.01054    -0.00928    -0.01652
 PX  O  11   0.40429     0.72323    -0.07016    -0.00922     0.00212     0.00673
 PY  O  11  -0.09554     0.12724     0.68942    -0.00136     0.00180    -0.01879
 PZ  O  11   0.41050    -0.14906    -0.28575     0.00491    -0.00505     0.00572
  
  S  C  12  -0.01547     0.01562     0.21554    -0.00115    -0.00288     0.01789
 PX  C  12   0.01054     0.02315    -0.04287     0.00170    -0.00084    -0.00152
 PY  C  12  -0.00776    -0.01794    -0.46965     0.00762    -0.00636    -0.04544
 PZ  C  12   0.01672     0.00516     0.23042    -0.00334     0.00217     0.02096
  
  S  H  13   0.01938    -0.00054    -0.01016     0.00044     0.00180    -0.00149
  
  S  H  14  -0.01099    -0.01902    -0.01256     0.00067     0.00374    -0.00276
  
  S  H  15   0.00630     0.01158    -0.01289    -0.00039     0.00349     0.00196
  
  S  N  16  -0.00184     0.01154     0.00452    -0.34478     0.01449    -0.02325
 PX  N  16   0.00018    -0.00530     0.00198     0.60321    -0.02065     0.01331
 PY  N  16  -0.00442     0.00278    -0.00061    -0.08108    -0.00079     0.01308
 PZ  N  16   0.00215    -0.00557    -0.00117     0.23042    -0.00163    -0.01650
  
  S  C  17   0.00641    -0.00201    -0.00281     0.02205    -0.00624     0.02504
 PX  C  17   0.00253     0.00107    -0.00006     0.05382    -0.00183     0.00422
 PY  C  17   0.00408    -0.00235    -0.00184     0.01045    -0.00512     0.01993
 PZ  C  17  -0.00804     0.00360     0.00355    -0.02348     0.00919    -0.03535
  
  S  C  18   0.00058     0.00069    -0.00013    -0.00982     0.00129    -0.00256
 PX  C  18   0.00375     0.00039    -0.00171    -0.02056     0.00256    -0.00145
 PY  C  18  -0.00049    -0.00010    -0.00000     0.01377    -0.00172     0.00310
 PZ  C  18  -0.00086    -0.00085     0.00011     0.01231    -0.00155     0.00204
  
  S  C  19  -0.00097     0.00042     0.00052     0.00208     0.00032    -0.00156
 PX  C  19   0.00332     0.00070    -0.00169    -0.03801     0.00429    -0.00488
 PY  C  19  -0.00244     0.00040     0.00114     0.00955    -0.00066    -0.00060
 PZ  C  19  -0.00037    -0.00029     0.00024     0.00341    -0.00019    -0.00048
  
  S  C  20   0.00014    -0.00040    -0.00007     0.00227    -0.00074     0.00213
 PX  C  20  -0.00004    -0.00015     0.00004     0.00519    -0.00045     0.00045
 PY  C  20   0.00007    -0.00030    -0.00006     0.00034    -0.00052     0.00172
 PZ  C  20  -0.00010     0.00071     0.00004    -0.00317     0.00110    -0.00290
  
  S  C  21   0.00058    -0.00028    -0.00023     0.00028    -0.00051     0.00177
 PX  C  21  -0.00005    -0.00005    -0.00005    -0.01081     0.00078    -0.00093
 PY  C  21   0.00056    -0.00026    -0.00015     0.00314    -0.00059     0.00153
 PZ  C  21  -0.00072     0.00049     0.00028     0.00089     0.00069    -0.00252
  
  S  C  22   0.00018    -0.00004    -0.00008     0.00052    -0.00015     0.00051
 PX  C  22  -0.00257    -0.00048     0.00120     0.01964    -0.00251     0.00223
 PY  C  22   0.00088     0.00018    -0.00042    -0.00560     0.00071    -0.00049
 PZ  C  22   0.00027     0.00004    -0.00013    -0.00330     0.00045    -0.00060
  
  S  H  23  -0.00035     0.00016     0.00014    -0.00033     0.00022    -0.00073
  
  S  H  24   0.00001    -0.00014     0.00001     0.00003    -0.00016     0.00043
  
  S  H  25  -0.00009     0.00021     0.00006    -0.00163     0.00038    -0.00092
  
  S  C  26   0.00022     0.00012    -0.00024    -0.00234     0.00038    -0.00074
 PX  C  26  -0.00045    -0.00039    -0.00013    -0.00348    -0.00005     0.00028
 PY  C  26  -0.00056    -0.00026    -0.00002     0.00062    -0.00051     0.00131
 PZ  C  26  -0.00005     0.00012     0.00020     0.00236    -0.00014     0.00019
  
  S  C  27   0.00584     0.00037    -0.00143     0.00020     0.00052     0.00154
 PX  C  27   0.00148    -0.00132     0.00174    -0.00371     0.00034    -0.00027
 PY  C  27  -0.00354     0.00271    -0.00278     0.00150    -0.00005    -0.00091
 PZ  C  27  -0.00364    -0.00022     0.00154     0.00150    -0.00021    -0.00178
  
  S  H  28   0.00400    -0.00146     0.00102    -0.00327    -0.00015     0.00269
  
  S  H  29  -0.00233    -0.00033     0.00096     0.00263    -0.00061    -0.00015
  
  S  H  30   0.00702    -0.00023     0.00013    -0.00333     0.00027     0.00199
  
  S  C  31   0.00022     0.00030     0.00006     0.00056     0.00026    -0.00127
 PX  C  31   0.00066    -0.00035     0.00011    -0.00330     0.00017     0.00068
 PY  C  31  -0.00040    -0.00001    -0.00010     0.00148    -0.00022     0.00038
 PZ  C  31   0.00022    -0.00067     0.00007    -0.00318    -0.00009     0.00162
  
  S  H  32  -0.00014    -0.00006     0.00004    -0.00000    -0.00006     0.00001
  
  S  H  33  -0.00014    -0.00017     0.00007    -0.00061    -0.00006     0.00015
  
  S  H  34   0.00024    -0.00009    -0.00032    -0.00478    -0.00001     0.00255
  
  S  H  35  -0.00059    -0.00026     0.00031     0.00074    -0.00027     0.00022
  
  S  C  36   0.00003    -0.00018    -0.00008    -0.00146     0.00007    -0.00046
 PX  C  36  -0.00014     0.00015    -0.00001    -0.00189     0.00017     0.00045
 PY  C  36   0.00002    -0.00025    -0.00007    -0.00129     0.00006    -0.00047
 PZ  C  36   0.00009    -0.00003    -0.00002    -0.00005     0.00000    -0.00007
  
  S  C  37   0.00025     0.00048    -0.00004     0.00195     0.00033    -0.00124
 PX  C  37  -0.00005    -0.00002     0.00006    -0.00173     0.00011    -0.00012
 PY  C  37   0.00032     0.00052    -0.00001     0.00115     0.00037    -0.00140
 PZ  C  37  -0.00041    -0.00029     0.00011    -0.00427     0.00031    -0.00056
  
  S  H  38  -0.00002     0.00009     0.00007    -0.00004     0.00003     0.00072
  
  S  H  39   0.00008     0.00009    -0.00001     0.00023     0.00004    -0.00006
  
  S  H  40  -0.00009     0.00002     0.00004     0.00036    -0.00003     0.00002
  
  S  C  41  -0.00004     0.00001     0.00015     0.00115    -0.00016     0.00006
 PX  C  41   0.00060     0.00035    -0.00019    -0.00126     0.00035    -0.00024
 PY  C  41  -0.00003    -0.00003     0.00019     0.00121    -0.00020     0.00013
 PZ  C  41  -0.00015    -0.00007     0.00005     0.00028    -0.00010     0.00008
  
  S  H  42   0.00053    -0.00008     0.00009    -0.00598     0.00016     0.00092
  
  S  H  43  -0.00015     0.00000     0.00001     0.00045    -0.00005     0.00002
  
  S  H  44   0.00036    -0.00003    -0.00002     0.00013    -0.00002     0.00009
  
  S  H  45  -0.00001     0.00001    -0.00002    -0.00086     0.00012    -0.00018
  
  S Zr  46   0.14990     0.03241    -0.03890     0.04843     0.02487    -0.00707
 PX Zr  46  -0.15788     0.00774     0.03388    -0.00490    -0.01172    -0.03854
 PY Zr  46   0.10632     0.02100     0.01726    -0.02750     0.01319    -0.00053
 PZ Zr  46  -0.11557    -0.03642     0.02521     0.04801    -0.01561    -0.01168
 X2 Zr  46   0.06605    -0.03227    -0.05056    -0.01578     0.00360     0.02449
 XZ Zr  46   0.16692     0.02743    -0.05674    -0.06415     0.02048     0.01641
 Z2 Zr  46  -0.01777     0.04834    -0.00550     0.03191     0.00268    -0.01315
 YZ Zr  46  -0.09442    -0.04035    -0.01612    -0.03749    -0.00796    -0.00578
 XY Zr  46  -0.13397    -0.01610    -0.01084     0.02816    -0.01511     0.00033
  
  S  C  47   0.00511    -0.00026    -0.00194    -0.00215     0.00031     0.00362
 PX  C  47  -0.00018     0.00230     0.00069     0.00351     0.00057    -0.00367
 PY  C  47  -0.00580    -0.00249     0.00032    -0.00281    -0.00159     0.00484
 PZ  C  47  -0.00412    -0.00064     0.00008     0.00012     0.00002    -0.00139
  
  S  H  48   0.00097     0.00098     0.00057     0.00225    -0.00044     0.00091
  
  S  H  49   0.00356    -0.00079    -0.00119    -0.00193     0.00013     0.00094
  
  S  H  50  -0.00529    -0.00114     0.00024    -0.00119    -0.00072     0.00041
  
  S  C  51   0.00760    -0.00281    -0.00420    -0.00119     0.00007     0.00348
 PX  C  51   0.00106     0.00493     0.00449     0.00595     0.00115    -0.00469
 PY  C  51  -0.00655     0.00223     0.00121     0.00243    -0.00005    -0.00263
 PZ  C  51   0.00259     0.00096     0.00113     0.00047    -0.00017     0.00151
  
  S  H  52  -0.00448    -0.00164    -0.00097    -0.00059    -0.00083     0.00031
  
  S  H  53   0.00227    -0.00157    -0.00171    -0.00395    -0.00000     0.00138
  
  S  H  54   0.00845     0.00289     0.00131    -0.00033     0.00089     0.00079




    ROOT NO.    7           8           9          10          11          12

           -23.43272   -23.30647   -23.12272   -23.01859   -22.98624   -22.96629
  
  
  S  C   1  -0.00432    -0.00091     0.42718    -0.00894    -0.00143     0.00330
 PX  C   1  -0.00420    -0.00078    -0.50808     0.00603    -0.00143     0.00272
 PY  C   1  -0.00042    -0.00170    -0.20234     0.00230    -0.00161     0.00012
 PZ  C   1  -0.00289    -0.00078     0.16600    -0.00230    -0.00234     0.00279
  
  S  C   2   0.02590    -0.03504    -0.02928    -0.00637     0.00246    -0.02267
 PX  C   2  -0.00355    -0.05607    -0.05517    -0.00435    -0.00038    -0.01215
 PY  C   2  -0.01571    -0.01387    -0.02829     0.00268    -0.00747     0.00462
 PZ  C   2   0.01949     0.00330     0.02529    -0.00469    -0.00159    -0.01226
  
  S  C   3  -0.00042    -0.01014     0.40619    -0.01128    -0.00019    -0.00126
 PX  C   3  -0.00062    -0.00186     0.50890     0.02145    -0.00091    -0.00135
 PY  C   3   0.00123     0.00384     0.18502     0.00576     0.00454    -0.00002
 PZ  C   3   0.00073    -0.00473    -0.15513    -0.00330     0.00297    -0.00016
  
  S  H   4   0.00336     0.00332    -0.00752     0.00313     0.00070    -0.00192
  
  S  C   5   0.00235    -0.01093    -0.01093     0.41347    -0.00101    -0.00280
 PX  C   5   0.00212     0.00804     0.02051     0.45571    -0.00093    -0.00123
 PY  C   5  -0.00067     0.01333    -0.00249    -0.12380    -0.00203     0.00060
 PZ  C   5   0.00164    -0.01609     0.00752     0.30548    -0.00251    -0.00309
  
  S  H   6   0.00017     0.00402    -0.01103     0.02620    -0.00026     0.00033
  
  S  C   7  -0.01440     0.39476    -0.00992     0.42804     0.00054     0.01874
 PX  C   7  -0.01211     0.51608     0.00276    -0.44619     0.00031     0.01597
 PY  C   7  -0.00575     0.18507    -0.00235     0.14718    -0.00553     0.00933
 PZ  C   7   0.00214    -0.14999     0.00476    -0.32264    -0.00325    -0.00977
  
  S  H   8  -0.00144     0.02687     0.02658    -0.01353     0.00026     0.00199
  
  S  C   9  -0.02410     0.46186    -0.00392    -0.01958    -0.01537    -0.00664
 PX  C   9  -0.03903    -0.48772    -0.00271    -0.01988    -0.02400     0.03763
 PY  C   9  -0.01754    -0.18828    -0.00189     0.01467     0.02345     0.02075
 PZ  C   9   0.02599     0.15431     0.00229    -0.02701     0.00372    -0.01827
  
  S  H  10   0.00241    -0.01058     0.00383    -0.00719    -0.00029     0.00053
  
  S  O  11   0.00621     0.01613     0.01653     0.00055    -0.00027     0.00063
 PX  O  11   0.00195    -0.02705    -0.02887    -0.00239    -0.00148    -0.00066
 PY  O  11  -0.00054     0.00277    -0.00227    -0.00068     0.00009     0.00029
 PZ  O  11   0.00407     0.00234     0.00539     0.00071    -0.00019    -0.00518
  
  S  C  12  -0.00250    -0.00658    -0.00139    -0.00016    -0.00035     0.00421
 PX  C  12  -0.00064     0.00222     0.00203    -0.00004    -0.00028     0.00358
 PY  C  12   0.00420     0.01945     0.01155    -0.00021     0.00024    -0.00115
 PZ  C  12  -0.00194    -0.00889    -0.00600     0.00012    -0.00011     0.00120
  
  S  H  13   0.00192     0.00068    -0.00131     0.00017     0.00014    -0.00259
  
  S  H  14   0.00038     0.00351     0.00123     0.00037    -0.00010     0.00063
  
  S  H  15   0.00116    -0.00141    -0.00172    -0.00007    -0.00008    -0.00104
  
  S  N  16   0.35680    -0.01072     0.00105     0.01575     0.01897     0.71850
 PX  N  16  -0.11564     0.00225    -0.00352    -0.02298    -0.01397     0.45565
 PY  N  16  -0.35328    -0.00915     0.00037     0.00336    -0.00758     0.19456
 PZ  N  16   0.54821     0.01383    -0.00090    -0.00897    -0.00285    -0.18935
  
  S  C  17   0.35189    -0.00649    -0.00064    -0.00191    -0.44907    -0.00908
 PX  C  17  -0.03709     0.00341     0.00002    -0.00151    -0.15095     0.05318
 PY  C  17   0.27481    -0.00386    -0.00053    -0.00184    -0.28019     0.00781
 PZ  C  17  -0.46060     0.00528     0.00090     0.00371    -0.43941    -0.01535
  
  S  C  18  -0.02054     0.00048     0.00009     0.00082    -0.42820    -0.00562
 PX  C  18   0.00881    -0.00107     0.00034     0.00078     0.16671    -0.02336
 PY  C  18   0.02236    -0.00050    -0.00020    -0.00082     0.23399     0.00603
 PZ  C  18  -0.00018    -0.00007    -0.00024    -0.00115     0.47948     0.01084
  
  S  C  19  -0.02253     0.00051    -0.00002     0.00023     0.02260     0.00864
 PX  C  19  -0.00188    -0.00185     0.00045     0.00408     0.00144    -0.03285
 PY  C  19  -0.01361     0.00129    -0.00007    -0.00072     0.00920     0.01554
 PZ  C  19  -0.01904     0.00055    -0.00006    -0.00022    -0.02363     0.00853
  
  S  C  20   0.01478    -0.00034    -0.00004    -0.00033     0.01345     0.00109
 PX  C  20  -0.00044    -0.00007    -0.00015     0.00070     0.00765     0.00366
 PY  C  20   0.01374    -0.00035     0.00001    -0.00049     0.01917    -0.00098
 PZ  C  20  -0.01687     0.00046     0.00010     0.00039     0.00547    -0.00268
  
  S  C  21   0.01475    -0.00019    -0.00004    -0.00036     0.00441    -0.00124
 PX  C  21   0.00393    -0.00094     0.00011    -0.00062     0.00203    -0.00988
 PY  C  21   0.00659     0.00026    -0.00007    -0.00015     0.00027     0.00332
 PZ  C  21  -0.02076     0.00046     0.00005     0.00061    -0.00400     0.00274
  
  S  C  22   0.00285    -0.00012    -0.00002    -0.00007     0.00639    -0.00027
 PX  C  22  -0.00339     0.00123    -0.00029    -0.00131    -0.00162     0.01933
 PY  C  22   0.00205    -0.00043     0.00007     0.00036     0.00606    -0.00597
 PZ  C  22  -0.00093    -0.00011     0.00005     0.00023     0.00116    -0.00262
  
  S  H  23  -0.00496     0.00007     0.00002     0.00014    -0.00219     0.00040
  
  S  H  24   0.00224    -0.00007    -0.00001    -0.00009    -0.00298     0.00010
  
  S  H  25  -0.00520     0.00009     0.00005     0.00025    -0.02716    -0.00104
  
  S  C  26  -0.00518    -0.00058     0.00003     0.00049     0.01543    -0.00482
 PX  C  26   0.00270    -0.00115     0.00008     0.00036    -0.00203    -0.00638
 PY  C  26   0.00706    -0.00021     0.00001    -0.00019    -0.01585    -0.00082
 PZ  C  26  -0.00018     0.00077    -0.00011    -0.00043     0.01332     0.00466
  
  S  C  27  -0.00406     0.00010    -0.00039    -0.00009     0.00408     0.00496
 PX  C  27  -0.00268    -0.00015     0.00010     0.00026     0.00019     0.00013
 PY  C  27   0.00477     0.00011    -0.00002    -0.00021    -0.00372    -0.00494
 PZ  C  27   0.00122     0.00058     0.00030    -0.00008     0.00165    -0.00256
  
  S  H  28   0.00115    -0.00146    -0.00017     0.00039    -0.00339    -0.00056
  
  S  H  29   0.00092     0.00066     0.00020    -0.00038    -0.00148     0.00499
  
  S  H  30  -0.00019    -0.00164    -0.00036     0.00044     0.00021     0.00028
  
  S  C  31  -0.00079    -0.00138    -0.00002     0.00023     0.00250    -0.00333
 PX  C  31   0.00074     0.00059     0.00006     0.00005     0.00003    -0.00044
 PY  C  31  -0.00054     0.00039    -0.00002    -0.00014     0.00004     0.00221
 PZ  C  31   0.00073     0.00159     0.00006    -0.00012    -0.00106     0.00192
  
  S  H  32   0.00018     0.00020     0.00000    -0.00008    -0.00115     0.00082
  
  S  H  33   0.00060    -0.00014     0.00002     0.00003    -0.00116    -0.00047
  
  S  H  34   0.00183     0.00293     0.00008    -0.00010    -0.00218     0.00174
  
  S  H  35   0.00168     0.00004     0.00001    -0.00012    -0.02026     0.00289
  
  S  C  36   0.00078     0.00047    -0.00009     0.00014     0.00180    -0.00071
 PX  C  36   0.00137    -0.00058     0.00018     0.00013     0.00293    -0.00087
 PY  C  36   0.00051     0.00056    -0.00010     0.00013     0.00125    -0.00057
 PZ  C  36   0.00007     0.00014    -0.00003    -0.00003    -0.00030    -0.00004
  
  S  C  37  -0.00638    -0.00256    -0.00008     0.00064    -0.01532    -0.00214
 PX  C  37   0.00011    -0.00065    -0.00000     0.00044    -0.00263    -0.00109
 PY  C  37  -0.00421    -0.00135    -0.00005     0.00008    -0.00994    -0.00184
 PZ  C  37  -0.00334     0.00308     0.00012     0.00000    -0.02244     0.00107
  
  S  H  38   0.00031    -0.00130     0.00014     0.00000     0.00062    -0.00004
  
  S  H  39  -0.00027    -0.00014     0.00001     0.00005     0.00054    -0.00026
  
  S  H  40  -0.00041     0.00014     0.00001    -0.00010    -0.00199     0.00041
  
  S  C  41   0.00017     0.00062    -0.00004    -0.00045     0.00106     0.00149
 PX  C  41  -0.00073    -0.00084    -0.00003     0.00060    -0.00158    -0.00226
 PY  C  41   0.00037     0.00060    -0.00005    -0.00051     0.00095     0.00168
 PZ  C  41   0.00024     0.00023    -0.00001    -0.00016     0.00017     0.00060
  
  S  H  42   0.00394     0.00504     0.00009    -0.00018    -0.00145     0.00019
  
  S  H  43  -0.00007    -0.00029    -0.00000     0.00003     0.00052     0.00004
  
  S  H  44   0.00038     0.00008     0.00001    -0.00005     0.00049     0.00032
  
  S  H  45  -0.00028     0.00002     0.00002     0.00011    -0.00172    -0.00077
  
  S Zr  46  -0.04722     0.02895    -0.00662    -0.00779    -0.00576     0.16894
 PX Zr  46   0.04687    -0.01009     0.00533     0.00466     0.01481    -0.22950
 PY Zr  46  -0.00593    -0.00997    -0.00443     0.00355     0.01606    -0.09008
 PZ Zr  46   0.01125     0.01918     0.00659    -0.00579    -0.01624     0.13075
 X2 Zr  46  -0.06369     0.00733     0.00024    -0.00143    -0.00358     0.15221
 XZ Zr  46   0.00892    -0.02647    -0.00714     0.00836     0.00228    -0.20048
 Z2 Zr  46   0.05263    -0.00124    -0.00328    -0.00169    -0.00328    -0.07330
 YZ Zr  46  -0.02828    -0.00285     0.00635     0.00429     0.01203    -0.05995
 XY Zr  46  -0.00471     0.01148     0.00495    -0.00366    -0.01875     0.11523
  
  S  C  47  -0.00227    -0.00082    -0.00072    -0.00011    -0.00076     0.00909
 PX  C  47   0.00082     0.00191     0.00039    -0.00029     0.00053    -0.00167
 PY  C  47   0.00163    -0.00219    -0.00057    -0.00007    -0.00190     0.00732
 PZ  C  47  -0.00301     0.00099     0.00051     0.00010     0.00169     0.00046
  
  S  H  48   0.00282    -0.00003    -0.00016    -0.00035    -0.00160     0.00368
  
  S  H  49  -0.00114    -0.00061     0.00009     0.00033     0.00040    -0.00072
  
  S  H  50  -0.00114    -0.00004     0.00044     0.00018     0.00024     0.00131
  
  S  C  51  -0.00031    -0.00038    -0.00027    -0.00023    -0.00144     0.00670
 PX  C  51  -0.00140     0.00232    -0.00025    -0.00048     0.00084     0.00222
 PY  C  51  -0.00139     0.00125     0.00025    -0.00015     0.00062     0.00137
 PZ  C  51   0.00357    -0.00114    -0.00068    -0.00021    -0.00022    -0.00048
  
  S  H  52  -0.00045    -0.00004     0.00040     0.00007    -0.00000     0.00152
  
  S  H  53   0.00048    -0.00107     0.00029     0.00057    -0.00000    -0.00483
  
  S  H  54   0.00362    -0.00120    -0.00086     0.00007     0.00004    -0.00364




    ROOT NO.   13          14          15          16          17          18

           -22.88552   -22.66135   -22.63916   -22.47225   -22.43234   -22.36042
  
  
  S  C   1   0.00046     0.00089    -0.00973     0.00063     0.00001    -0.00002
 PX  C   1   0.00088     0.00100     0.01486     0.00082    -0.00001    -0.00001
 PY  C   1  -0.00157     0.00040    -0.00945    -0.00043     0.00005    -0.00010
 PZ  C   1  -0.00069     0.00118     0.01825     0.00037     0.00005    -0.00007
  
  S  C   2  -0.00168    -0.00278    -0.00855    -0.00250    -0.00008    -0.00010
 PX  C   2   0.00090     0.00016     0.00471     0.00042    -0.00004    -0.00006
 PY  C   2  -0.00460     0.00352    -0.00349     0.00045     0.00033    -0.00019
 PZ  C   2  -0.00462    -0.00152     0.00677    -0.00321     0.00001    -0.00024
  
  S  C   3  -0.00029     0.00009     0.41605     0.00005     0.00001     0.00000
 PX  C   3  -0.00059     0.00031    -0.04347    -0.00008     0.00004    -0.00004
 PY  C   3   0.00431    -0.00135    -0.31775     0.00098    -0.00019     0.00021
 PZ  C   3   0.00224    -0.00095     0.47566     0.00052    -0.00012     0.00014
  
  S  H   4  -0.00040    -0.00063     0.02831    -0.00056    -0.00002    -0.00000
  
  S  C   5   0.00140     0.00035     0.41364     0.00038    -0.00001    -0.00005
 PX  C   5   0.00203     0.00036     0.06235     0.00058    -0.00003    -0.00002
 PY  C   5  -0.00259     0.00047     0.31939    -0.00082     0.00011    -0.00009
 PZ  C   5  -0.00084     0.00077    -0.46602    -0.00018     0.00007    -0.00010
  
  S  H   6   0.00024     0.00015    -0.01040     0.00010    -0.00000    -0.00001
  
  S  C   7  -0.00225     0.00065    -0.01027     0.00108     0.00012     0.00014
 PX  C   7   0.00370     0.00088     0.01992     0.00168    -0.00001     0.00002
 PY  C   7  -0.00236     0.00184     0.00965    -0.00082     0.00019    -0.00021
 PZ  C   7  -0.00584     0.00071    -0.00986    -0.00080     0.00017    -0.00012
  
  S  H   8   0.00008     0.00001    -0.01414     0.00005     0.00000     0.00001
  
  S  C   9   0.00260     0.00610    -0.00919     0.00340     0.00011    -0.00021
 PX  C   9   0.00445     0.00940     0.00719     0.00521     0.00033    -0.00029
 PY  C   9   0.01833    -0.00583     0.00406     0.00409    -0.00072     0.00077
 PZ  C   9   0.01431    -0.00036    -0.00248     0.00422    -0.00032     0.00035
  
  S  H  10   0.00603    -0.00049     0.02713    -0.00090    -0.00014    -0.00020
  
  S  O  11  -0.00063    -0.00025     0.00003    -0.00062    -0.00011    -0.00007
 PX  O  11   0.00007     0.00062    -0.00123     0.00013    -0.00010    -0.00012
 PY  O  11  -0.00022    -0.00010    -0.00147    -0.00002     0.00011     0.00007
 PZ  O  11  -0.00064    -0.00044     0.00058    -0.00062    -0.00003    -0.00007
  
  S  C  12   0.00076     0.00024     0.00032     0.00040     0.00001     0.00000
 PX  C  12   0.00012     0.00007    -0.00010     0.00005     0.00002     0.00002
 PY  C  12  -0.00095    -0.00045    -0.00256    -0.00067    -0.00001     0.00002
 PZ  C  12   0.00052     0.00020     0.00168     0.00034     0.00001     0.00000
  
  S  H  13  -0.00034    -0.00015     0.00063    -0.00026    -0.00003    -0.00003
  
  S  H  14  -0.00014    -0.00003     0.00059    -0.00009     0.00000     0.00000
  
  S  H  15  -0.00019     0.00002     0.00024    -0.00012    -0.00004    -0.00003
  
  S  N  16  -0.01372    -0.01689     0.00035    -0.01619    -0.00116    -0.00095
 PX  N  16   0.00017     0.00865    -0.00122     0.00540     0.00022    -0.00008
 PY  N  16  -0.00234     0.01363     0.00062     0.01210     0.00122     0.00143
 PZ  N  16  -0.00938    -0.01813    -0.00139    -0.02083    -0.00213    -0.00186
  
  S  C  17   0.45861     0.02272     0.00066     0.02348     0.00730     0.00777
 PX  C  17  -0.13549     0.00167    -0.00009    -0.00580     0.00176    -0.00142
 PY  C  17  -0.52660     0.02842     0.00060     0.00589     0.00563    -0.00637
 PZ  C  17  -0.01673    -0.02367    -0.00107    -0.03696     0.00376    -0.00251
  
  S  C  18  -0.02349    -0.43330     0.00003     0.00448     0.01556     0.00830
 PX  C  18  -0.00070    -0.02302     0.00072    -0.00246     0.00980     0.00020
 PY  C  18  -0.01984     0.28560    -0.00015    -0.00003     0.02449    -0.00326
 PZ  C  18   0.01911    -0.48171    -0.00025    -0.00436     0.01376     0.00754
  
  S  C  19   0.42035     0.00419    -0.00021    -0.43063     0.00828     0.01440
 PX  C  19   0.12034     0.00059     0.00003    -0.00097     0.00022    -0.00680
 PY  C  19   0.54220     0.00386    -0.00013     0.26933    -0.00414    -0.02466
 PZ  C  19  -0.03117    -0.00195    -0.00014    -0.49142     0.00635    -0.01084
  
  S  C  20  -0.00440    -0.41118     0.00007     0.00902    -0.41891     0.01021
 PX  C  20  -0.00141    -0.00684    -0.00055    -0.00038     0.16172     0.00262
 PY  C  20  -0.00293    -0.28167     0.00024    -0.00700     0.54815    -0.00522
 PZ  C  20   0.00317     0.49329    -0.00000    -0.00024    -0.00568     0.02296
  
  S  C  21  -0.01355     0.00880     0.00011    -0.41255     0.01042    -0.41738
 PX  C  21   0.00540     0.00254     0.00074    -0.01276    -0.00258    -0.13529
 PY  C  21   0.01331     0.00297    -0.00012    -0.27807    -0.01605    -0.28081
 PZ  C  21   0.01605     0.00535    -0.00027     0.49694     0.01580    -0.47612
  
  S  C  22  -0.00705     0.01071     0.00002     0.01110    -0.41243    -0.41469
 PX  C  22   0.00263     0.00392    -0.00044    -0.00529    -0.15708     0.15873
 PY  C  22   0.00265     0.00443     0.00014    -0.02118    -0.54641     0.26128
 PZ  C  22   0.00433     0.02137     0.00005     0.00694     0.02178     0.48225
  
  S  H  23   0.02664    -0.00372    -0.00003     0.01172    -0.02734     0.01189
  
  S  H  24   0.00289    -0.02687     0.00003    -0.02711     0.01271     0.01210
  
  S  H  25   0.00237     0.01455    -0.00000    -0.00363     0.00999    -0.02751
  
  S  C  26   0.01489     0.02168    -0.00001    -0.00149    -0.01950    -0.00085
 PX  C  26  -0.00731    -0.00053     0.00012     0.00044     0.00519     0.00081
 PY  C  26  -0.02529    -0.00242     0.00008     0.00214     0.02401     0.00199
 PZ  C  26   0.00010    -0.02121    -0.00007     0.00056     0.00510     0.00144
  
  S  C  27   0.00050    -0.00822    -0.00002     0.00032     0.00249     0.00026
 PX  C  27   0.00110     0.01267     0.00002     0.00035    -0.00352    -0.00028
 PY  C  27  -0.00163     0.00153    -0.00004    -0.00077    -0.00033    -0.00020
 PZ  C  27   0.00068    -0.01038    -0.00015     0.00013     0.00235     0.00040
  
  S  H  28  -0.00210    -0.00228     0.00022    -0.00013     0.00136     0.00002
  
  S  H  29   0.00131     0.00207     0.00002    -0.00003    -0.00167    -0.00021
  
  S  H  30   0.00118     0.00020     0.00020     0.00012    -0.00090     0.00005
  
  S  C  31  -0.00013    -0.00594    -0.00005    -0.00009     0.00127     0.00026
 PX  C  31   0.00033    -0.01067     0.00012     0.00013     0.00206     0.00025
 PY  C  31   0.00006     0.00594    -0.00004    -0.00000    -0.00111    -0.00025
 PZ  C  31   0.00029    -0.00008     0.00012     0.00026    -0.00006     0.00008
  
  S  H  32   0.00140     0.00141     0.00000    -0.00010    -0.00191    -0.00016
  
  S  H  33  -0.00039    -0.00167     0.00004    -0.00003     0.00061    -0.00010
  
  S  H  34  -0.00021    -0.00076     0.00017     0.00017     0.00038     0.00013
  
  S  H  35  -0.00353     0.00668     0.00003     0.00049     0.00160    -0.00135
  
  S  C  36   0.00759     0.00039    -0.00025     0.00383     0.00063    -0.00154
 PX  C  36   0.01365     0.00041     0.00032     0.00212     0.00005    -0.00025
 PY  C  36   0.00622     0.00021    -0.00027     0.00050    -0.00053     0.00114
 PZ  C  36  -0.00217     0.00011    -0.00005    -0.00051     0.00058    -0.00069
  
  S  C  37  -0.02219    -0.00172    -0.00029     0.01298    -0.00119    -0.01558
 PX  C  37   0.00208    -0.00025    -0.00005     0.00319    -0.00034    -0.00397
 PY  C  37   0.00693    -0.00131    -0.00009     0.01896    -0.00113    -0.01601
 PZ  C  37  -0.01942    -0.00198     0.00002     0.00055    -0.00186    -0.02090
  
  S  H  38   0.00152     0.00003     0.00021    -0.00129    -0.00001     0.00050
  
  S  H  39   0.00138    -0.00005     0.00003    -0.00132    -0.00077     0.00271
  
  S  H  40  -0.00241    -0.00023     0.00008    -0.00211    -0.00035    -0.00065
  
  S  C  41   0.00456     0.00023     0.00006     0.00311     0.00035    -0.00093
 PX  C  41  -0.00947    -0.00028    -0.00013    -0.00078     0.00001     0.00015
 PY  C  41   0.00520     0.00018     0.00009    -0.00076    -0.00024     0.00066
 PZ  C  41   0.00091     0.00015     0.00003     0.00026     0.00035    -0.00062
  
  S  H  42  -0.00576    -0.00002     0.00018    -0.02097     0.00054     0.00445
  
  S  H  43   0.00119    -0.00002    -0.00001    -0.00229    -0.00044     0.00189
  
  S  H  44   0.00213     0.00001     0.00001    -0.00117    -0.00004     0.00044
  
  S  H  45  -0.00141    -0.00017    -0.00000    -0.00200    -0.00018    -0.00112
  
  S Zr  46   0.01811    -0.00120    -0.00400     0.00542     0.00118     0.00163
 PX Zr  46  -0.01663    -0.00639    -0.00009    -0.00652     0.00022    -0.00017
 PY Zr  46  -0.00197    -0.00235    -0.00012     0.00030    -0.00062     0.00032
 PZ Zr  46   0.01189     0.00173    -0.00039     0.00238    -0.00048     0.00000
 X2 Zr  46   0.01172     0.00455    -0.00003     0.00706     0.00035     0.00027
 XZ Zr  46  -0.02176    -0.00088     0.00043    -0.00561     0.00089    -0.00044
 Z2 Zr  46  -0.00588    -0.00566    -0.00058    -0.00470     0.00034     0.00013
 YZ Zr  46  -0.00418     0.00092    -0.00037     0.00101    -0.00058     0.00040
 XY Zr  46  -0.00277     0.00453     0.00009    -0.00069     0.00064    -0.00036
  
  S  C  47  -0.00051     0.00075     0.00012     0.00041    -0.00004    -0.00004
 PX  C  47   0.00113    -0.00056    -0.00028    -0.00015     0.00004     0.00012
 PY  C  47  -0.00064     0.00105     0.00040    -0.00006    -0.00011    -0.00008
 PZ  C  47   0.00056    -0.00004    -0.00010     0.00028    -0.00005     0.00009
  
  S  H  48  -0.00015     0.00013     0.00009    -0.00026     0.00003    -0.00007
  
  S  H  49   0.00064     0.00002     0.00007     0.00013    -0.00003     0.00003
  
  S  H  50   0.00007     0.00001     0.00005    -0.00005    -0.00009    -0.00001
  
  S  C  51   0.00062     0.00040     0.00009     0.00039     0.00000    -0.00002
 PX  C  51   0.00041    -0.00049    -0.00038    -0.00021     0.00003     0.00010
 PY  C  51   0.00000    -0.00020    -0.00018    -0.00006     0.00006     0.00005
 PZ  C  51   0.00026    -0.00026     0.00013    -0.00009    -0.00002    -0.00003
  
  S  H  52   0.00013     0.00007     0.00007     0.00009     0.00001    -0.00002
  
  S  H  53  -0.00049     0.00018     0.00009    -0.00014    -0.00008    -0.00002
  
  S  H  54  -0.00005    -0.00036     0.00008    -0.00033    -0.00005    -0.00002




    ROOT NO.   19          20          21          22          23          24

           -21.29491   -21.28499   -21.26772   -21.12408   -21.03802   -20.99180
  
  
  S  C   1  -0.00701    -0.00381    -0.00056     0.00053     0.00061    -0.00042
 PX  C   1   0.00263     0.00037    -0.00422     0.00073     0.00065    -0.00055
 PY  C   1  -0.00658     0.00365     0.00332    -0.00115     0.00050     0.00004
 PZ  C   1   0.00481     0.00518    -0.00168    -0.00061     0.00058    -0.00043
  
  S  C   2   0.00450    -0.00607     0.02699     0.00000    -0.00084     0.00095
 PX  C   2   0.01228    -0.00453     0.04744    -0.00138    -0.00306     0.00011
 PY  C   2   0.00631    -0.00289     0.01459    -0.00039     0.00178    -0.00119
 PZ  C   2  -0.00000    -0.00276    -0.01354     0.00198     0.00394     0.00049
  
  S  C   3   0.00296     0.00164     0.00118    -0.00012    -0.00023     0.00000
 PX  C   3   0.00360     0.00246     0.00233    -0.00016     0.00005    -0.00005
 PY  C   3   0.00134    -0.00229     0.00108    -0.00057    -0.00311     0.00041
 PZ  C   3  -0.00039    -0.00211    -0.00107    -0.00012    -0.00167     0.00032
  
  S  H   4   0.01175     0.00469    -0.00617     0.00031     0.00041     0.00022
  
  S  C   5  -0.00060    -0.00049     0.00075     0.00024     0.00003    -0.00023
 PX  C   5  -0.00033    -0.00000     0.00050     0.00014    -0.00003    -0.00031
 PY  C   5   0.00167    -0.00113    -0.00235     0.00158     0.00120     0.00004
 PZ  C   5   0.00231    -0.00029    -0.00211     0.00123     0.00079    -0.00022
  
  S  H   6  -0.00002    -0.00002    -0.00107     0.00011     0.00016    -0.00010
  
  S  C   7   0.00051    -0.00063     0.00320    -0.00061    -0.00037     0.00008
 PX  C   7   0.00107    -0.00114     0.00480    -0.00102    -0.00132    -0.00011
 PY  C   7  -0.00025     0.00131     0.00215     0.00058     0.00304    -0.00079
 PZ  C   7  -0.00052     0.00129    -0.00104     0.00092     0.00275    -0.00018
  
  S  H   8   0.00057     0.00021     0.00056    -0.00024    -0.00021     0.00005
  
  S  C   9  -0.00154     0.00218    -0.00442     0.00419     0.00234    -0.00264
 PX  C   9   0.00020    -0.00072    -0.00024     0.00531     0.00375    -0.00414
 PY  C   9  -0.00386     0.00120     0.00142    -0.00507    -0.00719     0.00148
 PZ  C   9  -0.00101    -0.00352     0.00644    -0.00169    -0.00513    -0.00106
  
  S  H  10  -0.00046     0.00033    -0.00114     0.00030     0.00037    -0.00009
  
  S  O  11  -0.00776    -0.00376    -0.01514     0.00460     0.00550    -0.00068
 PX  O  11   0.00221    -0.00763     0.02420    -0.00012     0.00263    -0.00096
[...]




    ROOT NO.   55          56          57          58          59          60

           -18.37324   -14.95017   -14.66667   -14.18504   -14.11686   -13.80937
  
  
  S  C   1   0.00772     0.00107    -0.00064     0.00252     0.00039    -0.00016
 PX  C   1   0.01580     0.00125    -0.00143    -0.06039     0.00275     0.02964
 PY  C   1  -0.05086    -0.00023     0.00110     0.33746    -0.01107    -0.16075
 PZ  C   1  -0.02732     0.00132    -0.00117     0.21872    -0.00663    -0.10270
  
  S  C   2   0.00512    -0.00130    -0.00515     0.00085    -0.00163    -0.00170
 PX  C   2  -0.00935     0.00161    -0.01370    -0.13007     0.01651     0.00128
 PY  C   2   0.03346     0.00719    -0.00842     0.64018    -0.06978    -0.00415
 PZ  C   2   0.05509     0.00169     0.00249     0.41874    -0.05048    -0.00377
  
  S  C   3  -0.00173     0.00007    -0.00083    -0.00044     0.00036     0.00002
 PX  C   3  -0.00341     0.00089    -0.00158     0.01066    -0.00774    -0.00717
 PY  C   3   0.00517    -0.00320     0.00048    -0.06528     0.04827     0.04085
 PZ  C   3   0.00425    -0.00253     0.00133    -0.04234     0.03111     0.02678
  
  S  H   4   0.00019    -0.00081     0.00111    -0.00237    -0.00064     0.00114
  
  S  C   5   0.00027     0.00016    -0.00039     0.00074    -0.00007    -0.00227
 PX  C   5  -0.00487    -0.00027    -0.00000     0.02788     0.00447    -0.07123
 PY  C   5   0.03257     0.00176    -0.00108    -0.16865    -0.02725     0.42732
 PZ  C   5   0.02209     0.00149    -0.00129    -0.11146    -0.01798     0.28212
  
  S  H   6   0.00132     0.00018    -0.00001    -0.00014    -0.00007     0.00042
  
  S  C   7   0.00234     0.00170    -0.00173    -0.00110     0.00196    -0.00071
 PX  C   7   0.00429     0.00263    -0.00337    -0.00732     0.01229    -0.09910
 PY  C   7  -0.00452     0.00478    -0.00220     0.03264    -0.06036     0.60533
 PZ  C   7  -0.00431     0.00128     0.00056     0.02242    -0.04232     0.41118
  
  S  H   8   0.00001     0.00046    -0.00054    -0.00041     0.00028     0.00004
  
  S  C   9  -0.01538    -0.00101     0.00198    -0.00112    -0.00147     0.00012
 PX  C   9   0.01098     0.00419    -0.00284    -0.05907    -0.03832    -0.05131
 PY  C   9  -0.06255    -0.01113     0.00783     0.33942     0.24269     0.30863
 PZ  C   9  -0.02051    -0.00275    -0.00179     0.23986     0.16080     0.21589
  
  S  H  10  -0.00195    -0.00061     0.00117    -0.00045    -0.00049    -0.00063
  
  S  O  11  -0.34536    -0.00707     0.00848     0.00684    -0.00268    -0.00021
 PX  O  11  -0.06913     0.00207    -0.00803    -0.00206    -0.00077     0.00051
 PY  O  11   0.46547    -0.00181     0.00301     0.03451    -0.00284    -0.00138
 PZ  O  11   0.77958     0.00141    -0.00717     0.00755    -0.00217     0.00054
  
  S  C  12   0.00192     0.01362    -0.00489    -0.01866     0.00065     0.00201
 PX  C  12  -0.00376     0.00806     0.00365     0.00328    -0.00202    -0.00071
 PY  C  12   0.02613    -0.01269     0.01982     0.02737    -0.00276    -0.00105
 PZ  C  12   0.02585     0.00882    -0.00958    -0.02217     0.00152     0.00229
  
  S  H  13   0.03010    -0.00176    -0.00199    -0.00111     0.00043     0.00049
  
  S  H  14  -0.01019    -0.01436     0.00101     0.00424    -0.00100    -0.00091
  
  S  H  15  -0.03214    -0.00111    -0.00086     0.00944    -0.00012    -0.00122
  
  S  N  16  -0.00776    -0.00586     0.01096     0.00183    -0.01753     0.00049
 PX  N  16  -0.00301     0.00654    -0.00134     0.00390    -0.08932     0.00502
 PY  N  16  -0.00310    -0.00431    -0.00261    -0.03566     0.74895    -0.03233
 PZ  N  16  -0.00075    -0.00662    -0.00045    -0.02029     0.47403    -0.01955
  
  S  C  17   0.00278     0.00217    -0.00389    -0.00291    -0.00008    -0.00094
 PX  C  17  -0.00210     0.00047     0.00427     0.00447    -0.03452     0.00269
 PY  C  17   0.00283     0.00185    -0.00445    -0.00760     0.07450    -0.00530
 PZ  C  17  -0.00396    -0.00698     0.00669     0.00044     0.04769    -0.00093
  
  S  C  18  -0.00080     0.00017     0.00148     0.00520    -0.02883     0.00454
 PX  C  18   0.00101    -0.00383    -0.00119    -0.00821     0.03408    -0.00792
 PY  C  18  -0.00121     0.00149     0.00046    -0.00086     0.00995    -0.00061
 PZ  C  18   0.00002     0.00011    -0.00007    -0.00413     0.01659    -0.00372
  
  S  C  19  -0.00072    -0.00029    -0.00030    -0.00415     0.02774    -0.00406
 PX  C  19   0.00148    -0.00479    -0.00153    -0.01017     0.04422    -0.00786
 PY  C  19  -0.00116     0.00121    -0.00045    -0.00393     0.02112    -0.00438
 PZ  C  19  -0.00007     0.00025     0.00059     0.00131    -0.00109     0.00139
  
  S  C  20   0.00044     0.00048    -0.00109    -0.00114     0.00508    -0.00090
 PX  C  20  -0.00011     0.00001     0.00068     0.00130    -0.00258     0.00168
 PY  C  20   0.00045     0.00049    -0.00108    -0.00125     0.00491    -0.00116
 PZ  C  20  -0.00063    -0.00104     0.00149     0.00128    -0.00381     0.00092
  
  S  C  21   0.00035     0.00048    -0.00041     0.00058    -0.00427     0.00055
 PX  C  21   0.00070    -0.00055    -0.00146    -0.00275     0.01205    -0.00274
 PY  C  21   0.00011     0.00048     0.00018     0.00127    -0.00468     0.00122
 PZ  C  21  -0.00067    -0.00073     0.00092    -0.00034     0.00340    -0.00029
  
  S  C  22  -0.00001     0.00015    -0.00002    -0.00001    -0.00032    -0.00002
 PX  C  22  -0.00115     0.00319     0.00096     0.00592    -0.02018     0.00547
 PY  C  22   0.00021    -0.00087    -0.00021    -0.00202     0.00694    -0.00186
 PZ  C  22   0.00020    -0.00051    -0.00013    -0.00104     0.00377    -0.00095
  
  S  H  23  -0.00019    -0.00012    -0.00001    -0.00091     0.00386    -0.00092
  
  S  H  24   0.00018     0.00018    -0.00029    -0.00009     0.00017    -0.00004
  
  S  H  25  -0.00010    -0.00013     0.00026     0.00103    -0.00341     0.00091
  
  S  C  26  -0.00083    -0.00455     0.00028     0.00067    -0.00446     0.00069
 PX  C  26  -0.00003    -0.00442    -0.00161    -0.00008    -0.00203     0.00026
 PY  C  26   0.00007     0.00006    -0.00039     0.00034    -0.00104     0.00020
 PZ  C  26   0.00037     0.00412     0.00095    -0.00010    -0.00056    -0.00026
  
  S  C  27  -0.00311     0.00427     0.00374     0.00220    -0.01503     0.00235
 PX  C  27   0.00876    -0.01105    -0.00454    -0.00260     0.00732    -0.00165
 PY  C  27  -0.01213     0.01248     0.00647     0.00255    -0.00841     0.00092
 PZ  C  27   0.00721    -0.00812    -0.00278    -0.00253     0.01465    -0.00249
  
  S  H  28   0.00386    -0.00175     0.01675     0.00103    -0.00580     0.00128
  
  S  H  29   0.00094     0.00682    -0.00438    -0.00169     0.00815    -0.00155
  
  S  H  30   0.00214    -0.02009     0.00294    -0.00170     0.00045     0.00035
  
  S  C  31   0.00025    -0.00158     0.00035    -0.00288    -0.00540    -0.00291
 PX  C  31   0.00143    -0.00081    -0.00064     0.00099     0.00708     0.00112
 PY  C  31  -0.00079     0.00106     0.00021     0.00129    -0.00157     0.00097
 PZ  C  31   0.00114     0.00053    -0.00088     0.00335     0.00897     0.00337
  
  S  H  32  -0.00008     0.00030    -0.00013     0.00031     0.00112     0.00039
  
  S  H  33   0.00021     0.00016    -0.00049    -0.00020     0.00111     0.00011
  
  S  H  34  -0.00062     0.00047    -0.00028     0.00570     0.01250     0.00605
  
  S  H  35  -0.00013     0.00295    -0.00103    -0.00029     0.00118    -0.00017
  
  S  C  36   0.00009     0.00003     0.00007    -0.00041    -0.00010     0.00175
 PX  C  36   0.00003    -0.00001     0.00017    -0.00091     0.00072    -0.00267
 PY  C  36   0.00009     0.00008     0.00000    -0.00032    -0.00012     0.00054
 PZ  C  36   0.00000    -0.00000    -0.00001     0.00003    -0.00043     0.00054
  
  S  C  37  -0.00050    -0.00112     0.00027     0.00254     0.00996     0.00404
 PX  C  37   0.00008     0.00006     0.00006    -0.00027     0.00029     0.00113
 PY  C  37  -0.00063    -0.00099     0.00078     0.00245     0.00669     0.00193
 PZ  C  37   0.00040     0.00058     0.00006    -0.00279    -0.00969    -0.00398
  
  S  H  38  -0.00005     0.00003    -0.00009     0.00010     0.00017    -0.00636
  
  S  H  39  -0.00005    -0.00015     0.00005     0.00010     0.00167    -0.00037
  
  S  H  40  -0.00002     0.00007     0.00008     0.00010    -0.00085    -0.00017
  
  S  C  41   0.00005     0.00018     0.00110    -0.00010    -0.00151    -0.00062
 PX  C  41  -0.00024    -0.00084     0.00192     0.00027     0.00298     0.00086
 PY  C  41   0.00009     0.00035     0.00100    -0.00020    -0.00172    -0.00050
 PZ  C  41  -0.00002     0.00023    -0.00018     0.00004    -0.00098    -0.00030
  
  S  H  42   0.00039     0.00071    -0.00008    -0.00345    -0.01620    -0.00865
  
  S  H  43  -0.00015     0.00008     0.00015     0.00044     0.00068     0.00043
  
  S  H  44   0.00007     0.00000    -0.00378    -0.00007    -0.00060    -0.00014
  
  S  H  45   0.00005    -0.00004     0.00010    -0.00021     0.00035    -0.00022
  
  S Zr  46  -0.03218    -0.16587     0.18181     0.00876     0.00513    -0.00239
 PX Zr  46  -0.01724    -0.19364     0.19627     0.00701     0.01334    -0.00180
 PY Zr  46   0.06224    -0.25394    -0.25254    -0.01718     0.13231    -0.01352
 PZ Zr  46   0.06898     0.05447     0.04120    -0.00297     0.05744    -0.00409
 X2 Zr  46  -0.01153     0.09637    -0.09992    -0.01167     0.05832    -0.00807
 XZ Zr  46  -0.06682     0.06243    -0.00071     0.01617    -0.13443     0.01721
 Z2 Zr  46  -0.10856     0.18024    -0.19624     0.00584     0.07003    -0.01016
 YZ Zr  46  -0.00939     0.10560    -0.03680    -0.00467     0.03100    -0.00501
 XY Zr  46  -0.08081    -0.24247    -0.27374     0.02686    -0.19021     0.02130
  
  S  C  47  -0.00830    -0.00978     0.43040    -0.00133     0.00224    -0.00069
 PX  C  47   0.00770     0.00116    -0.41456     0.00227    -0.00436     0.00146
 PY  C  47  -0.01389    -0.00508     0.60196    -0.00009    -0.00895     0.00082
 PZ  C  47   0.00338    -0.00060    -0.12951    -0.00077     0.00424    -0.00079
  
  S  H  48  -0.00206    -0.00111     0.00312     0.00195    -0.00816     0.00171
  
  S  H  49   0.00054    -0.00155     0.00342    -0.00157     0.00624    -0.00129
  
  S  H  50  -0.00201     0.00055     0.00239    -0.00005     0.00010    -0.00016
  
  S  C  51  -0.00245    -0.42993     0.00769    -0.00186     0.00557    -0.00108
 PX  C  51   0.00558     0.62043    -0.00516     0.00390    -0.00967     0.00243
 PY  C  51  -0.00077     0.30827    -0.00439     0.00166    -0.00446     0.00094
 PZ  C  51  -0.00591    -0.29123    -0.00213    -0.00277     0.01170    -0.00247
  
  S  H  52  -0.00223    -0.00096     0.00204    -0.00051     0.00215    -0.00042
  
  S  H  53   0.00233    -0.00001     0.00165     0.00029    -0.00209     0.00053
  
  S  H  54   0.00106    -0.00184     0.00130    -0.00089     0.00490    -0.00067




    ROOT NO.   61          62          63          64

           -13.66955   -13.47839   -13.46324   -13.31843
  
  
  S  C   1   0.00318     0.00121     0.00254    -0.00113
 PX  C   1  -0.08144     0.00187     0.00382    -0.00193
 PY  C   1   0.44943    -0.00109    -0.00272     0.00145
 PZ  C   1   0.28992     0.00089     0.00071    -0.00039
  
  S  C   2   0.00182    -0.00079    -0.00187     0.00080
 PX  C   2   0.00080     0.00244     0.00731    -0.00310
 PY  C   2   0.00539    -0.00156    -0.00088     0.00105
 PZ  C   2   0.00370    -0.00403    -0.00554     0.00337
  
  S  C   3   0.00315     0.00038     0.00129    -0.00026
 PX  C   3  -0.10002    -0.00025    -0.00030     0.00015
 PY  C   3   0.59715     0.00249     0.00292    -0.00229
 PZ  C   3   0.38818     0.00171     0.00304    -0.00134
  
  S  H   4  -0.00274    -0.00061    -0.00081     0.00053
  
  S  C   5  -0.00123     0.00067    -0.00069    -0.00077
 PX  C   5  -0.05139     0.00104    -0.00009    -0.00112
 PY  C   5   0.31170    -0.00046    -0.00391     0.00120
 PZ  C   5   0.20601     0.00060    -0.00113    -0.00035
  
  S  H   6  -0.00016     0.00025     0.00007    -0.00027
  
  S  C   7   0.00046    -0.00075     0.00461     0.00168
 PX  C   7   0.00944    -0.00092    -0.00338     0.00037
 PY  C   7  -0.05071    -0.00402    -0.00742     0.00199
 PZ  C   7  -0.03438    -0.00150     0.00348     0.00221
  
  S  H   8   0.00026    -0.00046    -0.00067     0.00031
  
  S  C   9  -0.00023     0.01252     0.02777    -0.01127
 PX  C   9   0.02820     0.01400     0.02655    -0.01186
 PY  C   9  -0.16618     0.00120     0.01168    -0.00405
 PZ  C   9  -0.11688     0.01365     0.03041    -0.01353
  
  S  H  10   0.00054     0.00022    -0.01680    -0.00039
  
  S  O  11  -0.00137     0.00081     0.00155    -0.00049
 PX  O  11   0.00120     0.00165     0.00413    -0.00164
 PY  O  11  -0.00559    -0.00043    -0.00069     0.00029
 PZ  O  11  -0.00275     0.00112     0.00128    -0.00064
  
  S  C  12   0.00021    -0.00049    -0.00094     0.00052
 PX  C  12   0.00065    -0.00043    -0.00050     0.00034
 PY  C  12  -0.00532     0.00051     0.00059    -0.00033
 PZ  C  12   0.00095    -0.00035    -0.00031     0.00022
  
  S  H  13  -0.00078     0.00053     0.00102    -0.00051
  
  S  H  14   0.00132    -0.00007     0.00025    -0.00004
  
  S  H  15   0.00247     0.00039     0.00093    -0.00042
  
  S  N  16  -0.00049    -0.00564    -0.01017     0.00476
 PX  N  16  -0.00328    -0.00140     0.04139    -0.00601
 PY  N  16   0.02370     0.00328    -0.01252    -0.00040
 PZ  N  16   0.01398     0.00840     0.00972    -0.00569
  
  S  C  17   0.00113     0.00056     0.00083     0.00158
 PX  C  17  -0.00264     0.21333     0.62400    -0.15160
 PY  C  17   0.00397    -0.05005    -0.14858     0.03416
 PZ  C  17   0.00032    -0.04217    -0.11639     0.03045
  
  S  C  18  -0.00348    -0.00081     0.00094    -0.00208
 PX  C  18   0.00600     0.62117     0.22273    -0.15495
 PY  C  18   0.00052    -0.17049    -0.06129     0.04364
 PZ  C  18   0.00290    -0.13024    -0.04349     0.03127
  
  S  C  19   0.00289     0.00291    -0.00356    -0.00461
 PX  C  19   0.00725    -0.16890     0.60735     0.23710
 PY  C  19   0.00293     0.03912    -0.12963    -0.05577
 PZ  C  19  -0.00094     0.01872    -0.07150    -0.02764
  
  S  C  20   0.00073    -0.00532    -0.00009    -0.00047
 PX  C  20  -0.00121     0.60084    -0.17268     0.23974
 PY  C  20   0.00090    -0.18246     0.05220    -0.07162
 PZ  C  20  -0.00079    -0.10073     0.03081    -0.04175
  
  S  C  21  -0.00043     0.00027     0.00018     0.00371
 PX  C  21   0.00210    -0.16710     0.22217     0.61083
 PY  C  21  -0.00100     0.04705    -0.06034    -0.16921
 PZ  C  21   0.00027     0.02174    -0.02893    -0.07791
  
  S  C  22  -0.00001     0.00077    -0.00077     0.00566
 PX  C  22  -0.00456     0.20528    -0.16266     0.60868
 PY  C  22   0.00156    -0.06105     0.04936    -0.18324
 PZ  C  22   0.00081    -0.03182     0.02528    -0.09709
  
  S  H  23   0.00072    -0.00084     0.00140     0.00011
  
  S  H  24   0.00005     0.00006    -0.00011     0.00025
  
  S  H  25  -0.00074    -0.00180     0.00087    -0.00078
  
  S  C  26  -0.00051     0.00060    -0.00034     0.00024
 PX  C  26  -0.00012     0.04931     0.00686    -0.01171
 PY  C  26  -0.00020    -0.00699     0.00193    -0.00087
 PZ  C  26   0.00021    -0.01559    -0.00324     0.00424
  
  S  C  27  -0.00178    -0.01742    -0.01009     0.00763
 PX  C  27   0.00148     0.01358     0.00573    -0.00591
 PY  C  27  -0.00101     0.00739     0.00745    -0.00471
 PZ  C  27   0.00199    -0.01134    -0.00648     0.00505
  
  S  H  28  -0.00103     0.00453     0.00456    -0.00182
  
  S  H  29   0.00127     0.00250     0.00334    -0.00179
  
  S  H  30   0.00020     0.00235     0.00316    -0.00136
  
  S  C  31   0.00129     0.01535     0.00801    -0.00622
 PX  C  31  -0.00029     0.01754     0.00921    -0.00812
 PY  C  31  -0.00067    -0.00912    -0.00808     0.00611
 PZ  C  31  -0.00144     0.00363     0.00176    -0.00118
  
  S  H  32  -0.00021    -0.00576    -0.00427     0.00298
  
  S  H  33   0.00009    -0.00123     0.00098    -0.00106
  
  S  H  34  -0.00214    -0.00028    -0.00048    -0.00039
  
  S  H  35   0.00005    -0.00140    -0.00154     0.00110
  
  S  C  36   0.00024    -0.00557     0.01205     0.00728
 PX  C  36   0.00061    -0.00678     0.01337     0.00833
 PY  C  36   0.00030    -0.00425     0.00751     0.00545
 PZ  C  36  -0.00004    -0.00006    -0.00240     0.00001
  
  S  C  37  -0.00141    -0.00167     0.00285     0.00113
 PX  C  37   0.00002    -0.00824     0.03964     0.00373
 PY  C  37  -0.00112    -0.00023    -0.00382     0.00044
 PZ  C  37   0.00144    -0.00166    -0.00065     0.00172
  
  S  H  38   0.00036    -0.00004    -0.00078    -0.00049
  
  S  H  39  -0.00003    -0.00002     0.00018    -0.00139
  
  S  H  40  -0.00012     0.00236    -0.00422    -0.00367
  
  S  C  41   0.00011     0.00724    -0.01484    -0.00987
 PX  C  41  -0.00022    -0.00827     0.01461     0.00972
 PY  C  41   0.00015     0.00619    -0.00981    -0.00801
 PZ  C  41   0.00001     0.00260    -0.00057    -0.00343
  
  S  H  42   0.00186    -0.00150     0.00156     0.00213
  
  S  H  43  -0.00025    -0.00013     0.00036     0.00294
  
  S  H  44   0.00005     0.00051     0.00179    -0.00028
  
  S  H  45   0.00015    -0.00355     0.00592     0.00515
  
  S Zr  46  -0.00076    -0.01665    -0.03928     0.01832
 PX Zr  46   0.00018     0.00450     0.00472    -0.00363
 PY Zr  46   0.01151    -0.00009    -0.00821    -0.00032
 PZ Zr  46   0.00288     0.01032     0.01942    -0.00617
 X2 Zr  46   0.00671    -0.00649    -0.01796     0.00563
 XZ Zr  46  -0.01387    -0.00112    -0.00662     0.00183
 Z2 Zr  46   0.00471     0.01138     0.01710    -0.00733
 YZ Zr  46   0.00314    -0.01162    -0.03177     0.01147
 XY Zr  46  -0.01815    -0.00514    -0.00534     0.00462
  
  S  C  47   0.00061    -0.00080    -0.00174     0.00022
 PX  C  47  -0.00133    -0.00053    -0.00098     0.00082
 PY  C  47  -0.00045     0.00046     0.00293    -0.00069
 PZ  C  47   0.00057    -0.00181    -0.00230     0.00107
  
  S  H  48  -0.00139     0.00135     0.00343    -0.00116
  
  S  H  49   0.00108     0.00017     0.00167    -0.00027
  
  S  H  50   0.00008    -0.00026    -0.00011     0.00043
  
  S  C  51   0.00085     0.00096     0.00117    -0.00045
 PX  C  51  -0.00216    -0.00213    -0.00307     0.00172
 PY  C  51  -0.00086    -0.00136    -0.00177     0.00095
 PZ  C  51   0.00210     0.00182     0.00264    -0.00140
  
  S  H  52   0.00037     0.00006     0.00062    -0.00023
  
  S  H  53  -0.00046     0.00023     0.00075    -0.00024
  
  S  H  54   0.00063     0.00121     0.00263    -0.00116

          BONDING CONTRIBUTION OF EACH M.O.

  0.9176  1.7585  1.7899  2.0026  1.9847  1.9859  1.9736  1.9980  2.0087  1.9980
  1.9828  1.2589  1.9792  1.9963  1.9942  1.9957  1.9964  1.9959  1.9450  1.9409
  1.9518  2.1713  2.1583  1.9852  1.9544  1.9745  1.9766  1.9529  1.9437  1.9366
  1.9996  1.9466  1.9534  1.9516  1.9497  1.9668  1.9534  1.9971  1.9458  2.0001
  1.9434  2.1122  1.9707  1.9860  2.0668  1.9557  1.9546  1.9532  1.9518  1.9480
  1.9467  2.0737  2.0253  2.0307  0.3479  1.4791  1.5335  1.7624  1.1851  1.9505
  1.9721  1.9612  1.9971  2.0218 -0.4564 -1.6849 -1.8920 -1.7562 -1.4070 -1.8975
 -1.1543 -1.1882 -0.7913 -0.9139 -1.7629 -1.9116 -1.7736 -1.8518 -1.4264 -1.8615
 -1.7160 -1.9243 -1.8579 -1.8322 -1.9102 -1.8752 -1.8688 -1.9510 -1.9514 -1.8550
 -1.9111 -1.8226 -1.9137 -1.9484 -1.9215 -1.9750 -1.9694 -1.9683 -1.9504 -1.9506
 -1.8765 -1.9849 -1.9819 -1.7956 -1.8047 -1.9182 -1.8238 -1.7919 -1.9633 -1.9680
 -1.9398 -1.8993 -1.9514 -1.9380 -1.9500 -1.9575 -1.9538 -1.9176 -1.9805 -1.9642
 -1.9643 -1.9654 -1.9098 -1.9592 -1.9730 -1.9116 -1.9208 -1.9145 -1.9125 -1.8519
 -1.8557

 **********************
 *                    *
 * JOB ENDED NORMALLY *
 *                    *
 **********************



 TOTAL JOB TIME:             6.00 SECONDS

 == MOPAC DONE ==
