 
        ______________________________________
       |                                      |
       |           ==================         |
       |                 x T B                |
       |           ==================         |
       |               S. Grimme              |
       |        Universitaet Bonn, MCTC       |
       |         2015-18, Version 5.9         |
       |      Thu Sep 27 14:45:01 CEST 2018   |
       |______________________________________|
 
        This code comes without any warranty
        for non-commercial, academia use only.
        Final GFN2 version.
        Cite GFN-xTB work as:
        S. Grimme, C. Bannwarth, P. Shushkov
        JCTC, 13 (2017) 1989-2009
        for GFN2:
        C. Bannwarth, S. Ehlert, S. Grimme
        to be published.
        sTDA-xTB:
        S. Grimme  &  C. Bannwarth, JCP 145 (2016) 054103
        in the mass-spec context additionally:
        V. Asgeirsson, C.Bauer, S. Grimme, Chem. Sci. 8 (2017) 4879
 
        with help from
        P. Shushkov, G. Brandenburg, S. Dohm, J. Pisarek,
        F. März, M. Checinski, S. Ehrlich, S. Spicher, 
        P. Pracht, E. Caldeweyher, S. Ehlert, and C. Bannwarth.
 
        usage        :
        xtb <coord_file> [options]
        where <coord_file> is a valid file of TM)
        (*coord, Bohr) or xmol (*xyz, Angstroem)
        format.

        options:
        -chrg <int>   : molecular charge
        -uhf  <int>   : # of unpaired electrons(=2*S)
        -nox          : skip second, extended part in sTDA-xTB
        -pop          : do population analysis
                      : (default for -nox)
        -mowr <real>  : cut MO write above (def.3 Eh)
        -molden       : write formatted molden file
        -parx <file>  : read parameters for sTDA-xTB
                        calc (def:~/.param_stda2.xtb)
        -parv <file>  : read parameters for vTB part in
                        sTDA-xTB (def: ~/.param_stda1.xtb)
        -xtemp <real> : el. temp for xTB (def. 0 K)
        -etemp <real> : el. temp for GFN (def. 300 K)
        -fod          : calculate the FOD and write
                        molden.input file with
                        appropriate occupations
                        for plotting. Def. T=12500 K
 
        -gfn1         : use GFN-xTB
        -gfn2         : use GFN2-xTB
        -gfn2d3       : GFN2-xTB with D3 instead of D4
        -grad         : GFNn-xTB gradient
        -acc <real>   : GFNn-xTB accuracy (def. 1.0)
        -opt [level]  : optimize at GFNn-xTB
                      : level=crude,vloose,loose,
                      :       tight,vtight
        -hess         : compute Hessian at GFNn-xTB
        -ohess        : optimize and compute Hessian
        -omd          : optimize and do MD
        -siman        : conformational search
        -screen       : opt. loop over ensemble
        -gmd          : annealed MD for GMD procedure
        -esp          : ESP plot
        -modef        : vib mode following
        -gbsa [string1] [string2]
                        use GBSA implicit solvent
                        for solvent [string1] and
                        solvation state [string2]=
                        reference, bar1M (default=1M)
        additional GFN/opt/MD/siman options read from
        $XTBHOME/.xtbrc or $set in coordinate file
 
       spin and charge state information can be on:
       <.CHRG> (charge) and <.UHF> (=nalpha-nbeta)
       -uhf and -chrg override the file info.
       useful machine settings:
       setenv MKL_NUM_THREADS <NCORE_ON_YOUR_MACHINE>
       setenv OMP_STACKSIZE 500m
       limit stacksize unlimited
 
       total energies in Eh, gaps/HL energies in eV
       please read REVISION and HOWTO files carefully
          62  days left until this code expires
 =============================
  # OMP threads =           1
 =============================
 
 xtbhome directory:/export/zimmerman/adewyer/bin/xtb/
 
 argument            1 :-opt
 
 
 !!!!!!!!!!!!!!!!!!!!!!!!!!!!!!!!!!!!!!!!!!
 ! reading options from coord file and    !
 ! overriding <.xxx> files and <.xtbrc>   !
 !!!!!!!!!!!!!!!!!!!!!!!!!!!!!!!!!!!!!!!!!!
 name of molecule           :
 comment line               :
 number of atoms            :    15
 number of electrons        :    55
 charge                     : -1
 spin                       : 0.5
 first test random number   :  0.8183
 
 
 -----------------------------------------
  G F N (Geometry, Frequency, Non-covalent)
        parametrization, gfnver=           2
     D3 dispersion (test)
 /export/zimmerman/adewyer/bin/xtb/.param_gfn2.xtb
 -----------------------------------------
      method parameters     
 k(s)        :  1.8500
 k(p)        :  2.2300
 k(d)        :  2.2300
 k(f)        :  2.0000
 kEN (H0ij)  : -2.0000
 D3 a1       :  0.5200
 D3 a2       :  5.0000
 D3 s8       :  2.7000
 D3atm       :  5.0000
 alphaj      :  2.0000
 
     -------------------------
     ! NO SOLVENT MODEL USED !
     -------------------------
 
            Z     q(EN)     CN     RAES       Cart. coordinates
     1  N   5.0   -0.31    1.99    1.90     4.28324     2.83719     1.71210
     2  C   4.0   -0.10    2.20    3.00     2.19621     2.10089     1.14412
     3  C   4.0   -0.04    4.09    3.78     1.54604    -0.32772    -0.13919
     4  O   6.0   -0.22    2.81    2.36     3.82219    -1.77449    -0.59162
     5  H   1.0   -0.01    1.90    2.24     4.97398    -0.72448    -1.66905
     6  H   1.0   -0.02    1.00    1.43     0.54594    -0.00912    -1.94086
     7  H   1.0   -0.02    1.00    1.43     0.35107    -1.50585     1.07369
     8  PD 10.0    0.51    4.90    5.00     6.96728     0.40566     0.40917
     9  N   5.0   -0.34    1.94    1.90     9.71338    -1.58705    -1.65797
    10  C   4.0   -0.03    3.16    3.03    11.80429    -0.63299    -1.11629
    11  C   4.0   -0.01    4.11    3.81    12.19203     1.52172     0.70816
    12  O   6.0   -0.32    1.88    1.82     9.99651     2.32010     1.87697
    13  H   1.0   -0.03    1.00    1.43    13.08185     3.11210    -0.35492
    14  H   1.0   -0.03    1.00    1.43    13.61351     0.93362     2.15021
    15  H   1.0   -0.03    1.00    1.43    13.55873    -1.36570    -2.01787
 
  Z AO/shell   Hii/eV     exponent
  1     Sun Aug  5 11:40:37 CEST 2018   EN: 2.200 GM2: 0.406  GM3: 0.0800  RAES: 1.40
     1s    -10.707211    1.230000
  6     Sun Aug  5 11:40:37 CEST 2018   EN: 2.550 GM2: 0.538  GM3: 0.1500  RAES: 3.00
     2s    -13.970922    2.096432
     2p    -10.063292    1.800000
  7     Sun Aug  5 11:40:37 CEST 2018   EN: 3.040 GM2: 0.461  GM3:-0.0640  RAES: 1.90
     2s    -16.686243    2.339881
     2p    -12.523956    2.014332
  8     Sun Aug  5 11:40:37 CEST 2018   EN: 3.440 GM2: 0.452  GM3:-0.0517  RAES: 1.80
     2s    -20.229985    2.439742
     2p    -15.503117    2.137023
 46     Wed Apr 25 16:26:58 CEST 2018   EN: 2.200 GM2: 0.273  GM3: 0.0800  RAES: 5.00
     4d    -11.963518    2.353691
     5s     -9.714059    1.828354
     5p     -2.035281    1.333352
 no old-style atom pair restraing (fixing) potential
 
             =======================================
             |                                     |
             |        S C C  calculation           |
             |                                     |
             =======================================
 #proc     :            1
 Ncao      :           48
 Nao       :           47
 Nel       :           55
 T(el)     :   300.0
 accuracy  :     1.0
 intcut    :    25.0
 scfconv   :  0.100E-05
   qconv   :  0.100E-03
 intneglect:  0.100E-07
 broydamp  :      0.500
 Nshell    :           25
  q data taken from xtbrestart
  CAMM data taken from xtbrestart
 iter      E             dE          RMSdq      gap      omega  full diag
   1    -30.4086905 -0.304087E+02  0.657E+00    1.81       0.0  T
   2    -30.4389398 -0.302493E-01  0.427E+00    1.61       1.0  T
   3    -30.3375647  0.101375E+00  0.353E+00    1.95       1.0  T
   4    -30.4331971 -0.956324E-01  0.150E+00    1.61       1.0  T
   5    -30.4430451 -0.984801E-02  0.123E+00    1.74       1.0  T
   6    -30.4693912 -0.263460E-01  0.434E-01    1.74       1.0  T
   7    -30.4708217 -0.143055E-02  0.191E-01    1.72       1.0  T
   8    -30.4713419 -0.520209E-03  0.806E-02    1.74       1.0  T
   9    -30.4713618 -0.198654E-04  0.432E-02    1.74       1.0  T
  10    -30.4713750 -0.132499E-04  0.208E-02    1.74       1.2  T
  11    -30.4713779 -0.288006E-05  0.537E-03    1.74       4.8  T
  12    -30.4713779 -0.323728E-07  0.207E-03    1.74      12.5  T
  13    -30.4713780 -0.228701E-07  0.509E-04    1.74      50.7  T
  14    -30.4713780 -0.144018E-08  0.175E-04    1.74     147.8  T
speedup  1.00
cpu  time for SCC    0.04 s
wall time for SCC    0.04 s

          eigenvalues
 #    :          16         17         18         19         20         21         22         23
 occ. :        2.000      2.000      2.000      2.000      2.000      2.000      2.000      2.000
 eps  :        -8.091     -7.903     -7.487     -7.435     -6.724     -6.107     -5.794     -5.406
 #    :          24         25         26         27         28         29         30         31
 occ. :        2.000      2.000      2.000      2.000      1.000      0.000      0.000      0.000
 eps  :        -5.347     -5.186     -4.814     -4.607     -3.672     -1.935     -1.504     -1.180
 #    :          32         33         34         35         36         37         38         39
 occ. :        0.000      0.000      0.000      0.000      0.000      0.000      0.000      0.000
 eps  :         3.231      5.350      6.861      6.964      7.519      7.855      8.757      9.183
 
 
 Mulliken/CM5 charges        n(s)   n(p)   n(d)
     1 N  -0.17621 -0.39218   1.467  3.709  0.000
     2 C  -0.06678  0.02172   1.228  2.839  0.000
     3 C   0.09808  0.01989   1.030  2.872  0.000
     4 O  -0.37882 -0.62641   1.678  4.701  0.000
     5 H   0.35373  0.52355   0.646  0.000  0.000
     6 H   0.00291  0.06356   0.997  0.000  0.000
     7 H   0.03082  0.09397   0.969  0.000  0.000
     8 PD -0.21149  0.11333   0.614  0.847  8.750
     9 N  -0.31030 -0.51543   1.472  3.839  0.000
    10 C   0.07939  0.11441   1.098  2.823  0.000
    11 C   0.11740  0.04719   1.025  2.857  0.000
    12 O  -0.45288 -0.56108   1.655  4.798  0.000
    13 H  -0.02337  0.03706   1.023  0.000  0.000
    14 H  -0.02280  0.03759   1.023  0.000  0.000
    15 H  -0.03967  0.02284   1.040  0.000  0.000
 
 Wiberg/Mayer (AO) data. WBOs > 0.1 written file <wbo>
 largest (>0.05) Wiberg bond orders for each atom
           total WBO             WBO to atom ...
     1  N   3.109    C    2 2.239    PD   8 0.721
     2  C   3.451    N    1 2.239    C    3 0.954    PD   8 0.184
     3  C   3.889    H    7 0.962    H    6 0.961    C    2 0.954    O    4 0.936
     4  O   2.135    C    3 0.936    H    5 0.730    PD   8 0.364
     5  H   0.876    O    4 0.730    PD   8 0.135
     6  H   0.999    C    3 0.961
     7  H   0.998    C    3 0.962
     8  PD  3.219    O   12 0.806    N    9 0.771    N    1 0.721    O    4 0.364    C    2 0.184    H    5 0.135    C   10 0.090
     9  N   2.913    C   10 1.940    PD   8 0.771
    10  C   3.974    N    9 1.940    C   11 0.957    H   15 0.921    PD   8 0.090
    11  C   3.967    O   12 1.040    C   10 0.957    H   14 0.938    H   13 0.936
    12  O   2.031    C   11 1.040    PD   8 0.806
    13  H   0.999    C   11 0.936
    14  H   0.997    C   11 0.938
    15  H   0.978    C   10 0.921
 (R)spin-density population
 
 Mulliken population n(s)   n(p)   n(d)
     1 N   0.2036   0.013  0.191  0.000
     2 C   0.2787   0.054  0.225  0.000
     3 C   0.0570   0.020  0.037  0.000
     4 O   0.0269   0.001  0.026  0.000
     5 H  -0.0011  -0.001  0.000  0.000
     6 H   0.0005   0.001  0.000  0.000
     7 H   0.0005   0.001  0.000  0.000
     8 PD  0.1831   0.002  0.008  0.172
     9 N   0.2057   0.001  0.205  0.000
    10 C   0.0005  -0.000  0.000  0.000
    11 C   0.0163   0.004  0.012  0.000
    12 O   0.0101  -0.000  0.010  0.000
    13 H  -0.0000  -0.000  0.000  0.000
    14 H   0.0000   0.000  0.000  0.000
    15 H   0.0183   0.018  0.000  0.000
 
molecular dipole:
                 x           y           z       tot (Debye)
 q only:       -8.226      -0.858      -1.119
   full:        8.385      -1.221      -1.412      21.313
molecular quadrupole (traceless):
                xx          xy          yy          xz          yz          zz
 q only:      -67.798      -9.691      31.190     -10.743      -5.703      36.608
  q+dip:      -62.313     -10.516      26.811     -12.107      -9.068      35.503
   full:      -62.238     -10.082      26.140     -11.718     -10.535      36.098
 SCC converged in           14  cycles
 
SCC energy    :     -30.4713780
rep           :       0.2499813
ES            :       0.1778378
AES           :       0.0088085
AXC           :       0.0076411
disp          :      -0.0113737
HB            :       0.0000000
XB            :       0.0000000
SRB           :       0.0000000
fix           :       0.0000000
total E       :     -30.2327704
atomizationE  :       4.8384376     3036.17
(atE without considerung molecular charge,
 total energy contains solvation terms)
H-L gap (eV)  :          1.7371
 
             =======================================
             |                                     |
             |    Approximate Normal Coordinate    |
             |   Rational Function Optimization    |
             |                                     |
             =======================================
Ref. for RF algo: F.Eckert, P.Pulay, H.-J.Werner
                  J.Comput.Chem. 18 (1997) 1473.
ANC idea implemented by S. Grimme in the 2000ers (unpublished)
restraining potential by S. Ehrlich.
dumping coords to <xtbopt.coord> and <xtbopt.log
 optlevel               0
 Maxcycle             200
 Maxmicro              25
 Econv         5.000000000000000E-006
 Gconv         1.000000000000000E-003
 Maxdispl       2.00000000000000     
 Hlow          1.000000000000000E-002
 S6             20.0000000000000     
 Nvar               39

generating ANC from model Hessian ...
 Shifting diagonal of input Hessian by   9.168349472606727E-003
 Lowest  eigenvalues of input Hessian
   -0.000000   -0.000000   -0.000000   -0.000000    0.000000    0.000000
    0.010000    0.010506    0.012222    0.013049    0.021378    0.022831
    0.024251    0.040657    0.046412    0.060032    0.078765    0.093367
 Highest eigenvalues
    1.326889    1.343522    1.555061    1.723566    2.237265    2.305186
 
cpu  time for ANC gen    0.00 s
wall time for ANC gen    0.00 s
................................................................................
.............................. CYCLE    1 ......................................
................................................................................
  q data taken from xtbrestart
  CAMM data taken from xtbrestart
   1    -30.4713780 -0.304714E+02  0.118E-04    1.74       0.0  T
   2    -30.4713780  0.516437E-09  0.177E-04    1.74     145.5  T
   3    -30.4713780 -0.659188E-09  0.447E-05    1.74     577.0  T
speedup  1.02
cpu  time for SCC    0.02 s
wall time for SCC    0.02 s
speedup  0.99
cpu  time for grad    0.02 s
wall time for grad    0.02 s
 E :    -30.23277038  G :  0.044327    pred/act E change:  0.000D+00 -0.156D-09
Maxdispl :   0.0982   ||displ|| :   0.2051   Lambda : -0.459D-02
Largest |displ|/coords:  0.0982 (   3)  0.0897 (   1)  0.0805 (   7)
................................................................................
.............................. CYCLE    2 ......................................
................................................................................
   1    -30.4745045 -0.304745E+02  0.238E-01    1.57       0.0  T
   2    -30.4744605  0.440175E-04  0.165E-01    1.60       1.0  T
   3    -30.4745572 -0.966528E-04  0.119E-01    1.58       1.0  T
   4    -30.4746774 -0.120222E-03  0.392E-02    1.59       1.0  T
   5    -30.4746597  0.177133E-04  0.425E-02    1.59       1.0  T
   6    -30.4746993 -0.395620E-04  0.797E-03    1.59       3.2  T
   7    -30.4746993 -0.781422E-07  0.684E-03    1.59       3.8  T
   8    -30.4746996 -0.303526E-06  0.200E-03    1.59      12.9  T
   9    -30.4746996 -0.121016E-07  0.959E-04    1.59      26.9  T
speedup  1.01
cpu  time for SCC    0.02 s
wall time for SCC    0.02 s
speedup  1.00
cpu  time for grad    0.02 s
wall time for grad    0.02 s
 E :    -30.23625854  G :  0.024512    pred/act E change:  0.000D+00 -0.349D-02
Maxdispl :   0.1672   ||displ|| :   0.2975   Lambda : -0.415D-02
Largest |displ|/coords:  0.1672 (   7)  0.1148 (   4)  0.1022 (  22)
................................................................................
.............................. CYCLE    3 ......................................
................................................................................
   1    -30.4766965 -0.304767E+02  0.517E-01    1.34       0.0  T
   2    -30.4753689  0.132761E-02  0.373E-01    1.38       1.0  T
   3    -30.4741136  0.125527E-02  0.424E-01    1.35       1.0  T
   4    -30.4772081 -0.309443E-02  0.120E-01    1.35       1.0  T
   5    -30.4772637 -0.556335E-04  0.863E-02    1.36       1.0  T
   6    -30.4773586 -0.949028E-04  0.183E-02    1.36       1.4  T
   7    -30.4773590 -0.399363E-06  0.662E-03    1.36       3.9  T
   8    -30.4773592 -0.231324E-06  0.440E-03    1.36       5.9  T
   9    -30.4773595 -0.263776E-06  0.220E-03    1.36      11.7  T
speedup  0.99
cpu  time for SCC    0.02 s
wall time for SCC    0.02 s
speedup  1.01
cpu  time for grad    0.02 s
wall time for grad    0.02 s
 E :    -30.23892294  G :  0.015872    pred/act E change: -0.239D-02 -0.266D-02
Maxdispl :   0.1306   ||displ|| :   0.2784   Lambda : -0.199D-02
Largest |displ|/coords:  0.1306 (   6)  0.0984 (   5)  0.0888 (  22)
................................................................................
.............................. CYCLE    4 ......................................
................................................................................
   1    -30.4786949 -0.304787E+02  0.516E-01    1.25       0.0  T
   2    -30.4728287  0.586619E-02  0.583E-01    1.28       1.0  T
   3    -30.4778117 -0.498299E-02  0.374E-01    1.28       1.0  T
   4    -30.4801484 -0.233677E-02  0.105E-01    1.25       1.0  T
   5    -30.4801495 -0.102989E-05  0.740E-02    1.27       1.0  T
   6    -30.4802071 -0.576403E-04  0.229E-02    1.26       1.1  T
   7    -30.4802100 -0.287431E-05  0.102E-02    1.26       2.5  T
   8    -30.4802102 -0.175018E-06  0.687E-03    1.26       3.8  T
   9    -30.4802105 -0.381701E-06  0.329E-03    1.26       7.9  T
  10    -30.4802106 -0.556363E-07  0.918E-04    1.26      28.1  T
speedup  0.99
cpu  time for SCC    0.02 s
wall time for SCC    0.03 s
speedup  1.06
cpu  time for grad    0.02 s
wall time for grad    0.02 s
 E :    -30.24024833  G :  0.016907    pred/act E change: -0.226D-02 -0.133D-02
Maxdispl :   0.1774   ||displ|| :   0.3005   Lambda : -0.148D-02
Largest |displ|/coords:  0.1774 (   4)  0.1039 (   7)  0.0997 (  22)
................................................................................
.............................. CYCLE    5 ......................................
................................................................................
   1    -30.4806088 -0.304806E+02  0.689E-01    1.21       0.0  T
   2    -30.4645168  0.160920E-01  0.909E-01    1.18       1.0  T
   3    -30.4796113 -0.150945E-01  0.518E-01    1.24       1.0  T
   4    -30.4833080 -0.369675E-02  0.183E-01    1.19       1.0  T
   5    -30.4835964 -0.288369E-03  0.884E-02    1.19       1.0  T
   6    -30.4836745 -0.781289E-04  0.313E-02    1.19       1.0  T
   7    -30.4836778 -0.322178E-05  0.147E-02    1.19       1.8  T
   8    -30.4836786 -0.815510E-06  0.918E-03    1.19       2.8  T
   9    -30.4836792 -0.663722E-06  0.489E-03    1.19       5.3  T
  10    -30.4836794 -0.178931E-06  0.113E-03    1.19      22.9  T
speedup  1.01
cpu  time for SCC    0.03 s
wall time for SCC    0.03 s
speedup  0.99
cpu  time for grad    0.02 s
wall time for grad    0.02 s
 E :    -30.24140108  G :  0.016710    pred/act E change: -0.107D-02 -0.115D-02
Maxdispl :   0.2363   ||displ|| :   0.4089   Lambda : -0.173D-02
Largest |displ|/coords:  0.2363 (   4)  0.1463 (  22)  0.1436 (  10)
................................................................................
.............................. CYCLE    6 ......................................
................................................................................
   1    -30.4811305 -0.304811E+02  0.102E+00    1.31       0.0  T
   2    -30.4382997  0.428308E-01  0.146E+00    1.10       1.0  T
   3    -30.4792788 -0.409791E-01  0.798E-01    1.33       1.0  T
   4    -30.4865156 -0.723676E-02  0.344E-01    1.24       1.0  T
   5    -30.4880275 -0.151194E-02  0.150E-01    1.20       1.0  T
   6    -30.4882199 -0.192449E-03  0.544E-02    1.19       1.0  T
   7    -30.4882263 -0.634793E-05  0.241E-02    1.19       1.1  T
   8    -30.4882282 -0.195639E-05  0.131E-02    1.19       2.0  T
   9    -30.4882298 -0.156649E-05  0.797E-03    1.19       3.2  T
  10    -30.4882303 -0.478892E-06  0.169E-03    1.19      15.3  T
  11    -30.4882303 -0.428593E-08  0.830E-04    1.19      31.1  T
speedup  1.00
cpu  time for SCC    0.03 s
wall time for SCC    0.03 s
speedup  0.99
cpu  time for grad    0.02 s
wall time for grad    0.02 s
 E :    -30.24285019  G :  0.016767    pred/act E change: -0.805D-03 -0.145D-02
Maxdispl :   0.3580   ||displ|| :   0.7455   Lambda : -0.333D-02
Largest |displ|/coords:  0.3580 (   4)  0.2950 (  22)  0.2854 (  10)
................................................................................
.............................. CYCLE    7 ......................................
................................................................................
   1    -30.4757243 -0.304757E+02  0.159E+00    1.76       0.0  T
   2    -30.4326804  0.430439E-01  0.168E+00    1.19       1.0  T
   3    -30.4658348 -0.331544E-01  0.130E+00    1.77       1.0  T
   4    -30.4838057 -0.179709E-01  0.540E-01    1.56       1.0  T
   5    -30.4862371 -0.243140E-02  0.333E-01    1.48       1.0  T
   6    -30.4871218 -0.884662E-03  0.135E-01    1.44       1.0  T
   7    -30.4871710 -0.491822E-04  0.569E-02    1.44       1.0  T
   8    -30.4871784 -0.748115E-05  0.277E-02    1.43       1.0  T
   9    -30.4871910 -0.125308E-04  0.158E-02    1.44       1.6  T
  10    -30.4871919 -0.945328E-06  0.315E-03    1.44       8.2  T
  11    -30.4871920 -0.646621E-07  0.151E-03    1.44      17.1  T
speedup  0.99
cpu  time for SCC    0.03 s
wall time for SCC    0.03 s
speedup  1.04
cpu  time for grad    0.02 s
wall time for grad    0.02 s
 E :    -30.24485601  G :  0.044815    pred/act E change: -0.101D-02 -0.201D-02
Maxdispl :   0.1185   ||displ|| :   0.2871   Lambda : -0.270D-02
Largest |displ|/coords:  0.1185 (   1)  0.0974 (  10)  0.0905 (  22)
................................................................................
.............................. CYCLE    8 ......................................
................................................................................
   1    -30.4964235 -0.304964E+02  0.597E-01    1.85       0.0  T
   2    -30.4914148  0.500874E-02  0.642E-01    1.51       1.0  T
   3    -30.4956264 -0.421165E-02  0.532E-01    1.81       1.0  T
   4    -30.4977540 -0.212762E-02  0.223E-01    1.75       1.0  T
   5    -30.4979054 -0.151396E-03  0.197E-01    1.74       1.0  T
   6    -30.4982792 -0.373746E-03  0.638E-02    1.71       1.0  T
   7    -30.4982898 -0.106591E-04  0.138E-02    1.71       1.9  T
   8    -30.4982904 -0.568547E-06  0.723E-03    1.71       3.6  T
   9    -30.4982907 -0.264559E-06  0.550E-03    1.71       4.7  T
  10    -30.4982909 -0.203754E-06  0.111E-03    1.71      23.2  T
  11    -30.4982909 -0.109666E-07  0.498E-04    1.71      51.9  T
speedup  1.02
cpu  time for SCC    0.03 s
wall time for SCC    0.03 s
speedup  1.02
cpu  time for grad    0.02 s
wall time for grad    0.02 s
 E :    -30.24715193  G :  0.029207    pred/act E change: -0.259D-02 -0.230D-02
Maxdispl :   0.2481   ||displ|| :   0.6253   Lambda : -0.585D-02
Largest |displ|/coords:  0.2481 (   7)  0.2270 (  10)  0.2147 (  21)
................................................................................
.............................. CYCLE    9 ......................................
................................................................................
   1    -30.4989024 -0.304989E+02  0.131E+00    1.87       0.0  T
   2    -30.4904311  0.847127E-02  0.120E+00    1.77       1.0  T
   3    -30.4876523  0.277879E-02  0.118E+00    1.68       1.0  T
   4    -30.4927943 -0.514193E-02  0.785E-01    2.05       1.0  T
   5    -30.5012803 -0.848600E-02  0.193E-01    1.81       1.0  T
   6    -30.5014879 -0.207639E-03  0.128E-01    1.80       1.0  T
   7    -30.5015525 -0.646050E-04  0.617E-02    1.81       1.0  T
   8    -30.5015165  0.360159E-04  0.635E-02    1.78       1.0  T
   9    -30.5015660 -0.495138E-04  0.113E-02    1.80       2.3  T
  10    -30.5015664 -0.370923E-06  0.742E-03    1.80       3.5  T
  11    -30.5015667 -0.357325E-06  0.277E-03    1.80       9.3  T
  12    -30.5015668 -0.456348E-07  0.644E-04    1.80      40.1  T
speedup  1.01
cpu  time for SCC    0.03 s
wall time for SCC    0.03 s
speedup  1.02
cpu  time for grad    0.02 s
wall time for grad    0.02 s
 E :    -30.25260933  G :  0.051582    pred/act E change: -0.146D-02 -0.546D-02
Maxdispl :   0.4171   ||displ|| :   0.8054   Lambda : -0.103D-01
Largest |displ|/coords:  0.4171 (   7)  0.2842 (  21)  0.2561 (  10)
................................................................................
.............................. CYCLE   10 ......................................
................................................................................
   1    -30.4911778 -0.304912E+02  0.195E+00    1.81       0.0  T
   2    -30.4658281  0.253498E-01  0.189E+00    2.47       1.0  T
   3    -30.4746001 -0.877206E-02  0.155E+00    2.07       1.0  T
   4    -30.4971094 -0.225093E-01  0.808E-01    2.35       1.0  T
   5    -30.5009508 -0.384139E-02  0.289E-01    2.12       1.0  T
   6    -30.5013869 -0.436114E-03  0.224E-01    2.24       1.0  T
   7    -30.5015975 -0.210583E-03  0.153E-01    2.24       1.0  T
   8    -30.5015939  0.355429E-05  0.937E-02    2.22       1.0  T
   9    -30.5016575 -0.635750E-04  0.243E-02    2.23       1.1  T
  10    -30.5016612 -0.366376E-05  0.140E-02    2.23       1.8  T
  11    -30.5016629 -0.169387E-05  0.726E-03    2.23       3.6  T
  12    -30.5016632 -0.318091E-06  0.150E-03    2.23      17.2  T
speedup  0.97
cpu  time for SCC    0.03 s
wall time for SCC    0.03 s
speedup  1.04
cpu  time for grad    0.02 s
wall time for grad    0.02 s
 E :    -30.25595455  G :  0.073148    pred/act E change: -0.407D-02 -0.335D-02
Maxdispl :   0.1369   ||displ|| :   0.3446   Lambda : -0.896D-02
Largest |displ|/coords:  0.1369 (  22)  0.1331 (   7)  0.1224 (  21)
................................................................................
.............................. CYCLE   11 ......................................
................................................................................
   1    -30.5227089 -0.305227E+02  0.111E+00    2.48       0.0  T
   2    -30.5073076  0.154012E-01  0.123E+00    1.82       1.0  T
   3    -30.5198218 -0.125142E-01  0.908E-01    2.25       1.0  T
   4    -30.5257107 -0.588885E-02  0.361E-01    2.24       1.0  T
   5    -30.5269022 -0.119153E-02  0.170E-01    2.15       1.0  T
   6    -30.5271478 -0.245601E-03  0.552E-02    2.13       1.0  T
   7    -30.5271500 -0.225496E-05  0.329E-02    2.15       1.0  T
   8    -30.5271595 -0.949222E-05  0.131E-02    2.13       2.0  T
   9    -30.5271608 -0.130428E-05  0.549E-03    2.13       4.7  T
  10    -30.5271610 -0.156320E-06  0.221E-03    2.13      11.7  T
speedup  0.99
cpu  time for SCC    0.02 s
wall time for SCC    0.03 s
speedup  0.97
cpu  time for grad    0.02 s
wall time for grad    0.02 s
 E :    -30.25677453  G :  0.072607    pred/act E change: -0.845D-02 -0.820D-03
Maxdispl :   0.2627   ||displ|| :   0.6438   Lambda : -0.167D-01
Largest |displ|/coords:  0.2627 (   4)  0.2319 (  22)  0.2133 (  10)
................................................................................
.............................. CYCLE   12 ......................................
................................................................................
   1    -30.4730231 -0.304730E+02  0.141E+00    1.70       0.0  T
   2    -30.4485549  0.244681E-01  0.174E+00    2.20       1.0  T
   3    -30.4774911 -0.289361E-01  0.834E-01    1.88       1.0  T
   4    -30.4761614  0.132970E-02  0.586E-01    1.72       1.0  T
   5    -30.4804858 -0.432440E-02  0.194E-01    1.91       1.0  T
   6    -30.4806695 -0.183689E-03  0.123E-01    1.90       1.0  T
   7    -30.4806389  0.305556E-04  0.883E-02    1.89       1.0  T
   8    -30.4806920 -0.530764E-04  0.503E-02    1.87       1.0  T
   9    -30.4807194 -0.274288E-04  0.156E-02    1.89       1.7  T
  10    -30.4807198 -0.433218E-06  0.112E-02    1.88       2.3  T
  11    -30.4807210 -0.118276E-05  0.240E-03    1.88      10.7  T
  12    -30.4807210 -0.111308E-07  0.117E-03    1.88      22.1  T
speedup  0.96
cpu  time for SCC    0.03 s
wall time for SCC    0.03 s
speedup  0.99
cpu  time for grad    0.02 s
wall time for grad    0.02 s
 E :    -30.25101731  G :  0.104240    pred/act E change: -0.501D-02  0.576D-02
Maxdispl :   0.1420   ||displ|| :   0.3375   Lambda : -0.161D-01
Largest |displ|/coords:  0.1420 (  13)  0.1138 (   9)  0.0977 (   7)
................................................................................
.............................. CYCLE   13 ......................................
................................................................................
   1    -30.5037250 -0.305037E+02  0.774E-01    1.98       0.0  T
   2    -30.5039231 -0.198052E-03  0.433E-01    2.09       1.0  T
   3    -30.5031518  0.771301E-03  0.365E-01    2.10       1.0  T
   4    -30.5029922  0.159608E-03  0.330E-01    1.99       1.0  T
   5    -30.5041591 -0.116691E-02  0.151E-01    2.08       1.0  T
   6    -30.5043671 -0.207991E-03  0.408E-02    2.09       1.0  T
   7    -30.5043709 -0.379100E-05  0.252E-02    2.07       1.0  T
   8    -30.5043734 -0.257449E-05  0.151E-02    2.07       1.7  T
   9    -30.5043751 -0.166133E-05  0.626E-03    2.08       4.1  T
  10    -30.5043754 -0.308286E-06  0.220E-03    2.07      11.7  T
speedup  1.00
cpu  time for SCC    0.02 s
wall time for SCC    0.03 s
speedup  1.01
cpu  time for grad    0.02 s
wall time for grad    0.02 s
 E :    -30.26189468  G :  0.049414    pred/act E change: -0.118D-01 -0.109D-01
Maxdispl :   0.1202   ||displ|| :   0.2687   Lambda : -0.439D-02
Largest |displ|/coords:  0.1202 (   7)  0.0862 (   1)  0.0845 (  21)
................................................................................
.............................. CYCLE   14 ......................................
................................................................................
   1    -30.5157643 -0.305158E+02  0.572E-01    2.19       0.0  T
   2    -30.5155115  0.252821E-03  0.397E-01    2.37       1.0  T
   3    -30.5149619  0.549518E-03  0.375E-01    2.27       1.0  T
   4    -30.5158999 -0.938002E-03  0.288E-01    2.34       1.0  T
   5    -30.5165315 -0.631537E-03  0.933E-02    2.30       1.0  T
   6    -30.5166168 -0.853526E-04  0.290E-02    2.33       1.0  T
   7    -30.5166207 -0.382064E-05  0.151E-02    2.31       1.7  T
   8    -30.5166226 -0.189729E-05  0.666E-03    2.32       3.9  T
   9    -30.5166227 -0.192979E-06  0.290E-03    2.32       8.9  T
  10    -30.5166228 -0.369487E-07  0.207E-03    2.32      12.5  T
speedup  0.99
cpu  time for SCC    0.02 s
wall time for SCC    0.03 s
speedup  1.00
cpu  time for grad    0.02 s
wall time for grad    0.02 s
 E :    -30.26378506  G :  0.026101    pred/act E change: -0.895D-02 -0.189D-02
Maxdispl :   0.0989   ||displ|| :   0.1677   Lambda : -0.196D-02
Largest |displ|/coords:  0.0989 (   3)  0.0978 (   1)  0.0332 (  28)
................................................................................
.............................. CYCLE   15 ......................................
................................................................................
   1    -30.5151467 -0.305151E+02  0.283E-01    2.23       0.0  T
   2    -30.5140540  0.109268E-02  0.377E-01    2.40       1.0  T
   3    -30.5153812 -0.132725E-02  0.185E-01    2.31       1.0  T
   4    -30.5155236 -0.142405E-03  0.784E-02    2.30       1.0  T
   5    -30.5155341 -0.104927E-04  0.488E-02    2.31       1.0  T
   6    -30.5155541 -0.199542E-04  0.185E-02    2.32       1.4  T
   7    -30.5155561 -0.206863E-05  0.559E-03    2.31       4.6  T
   8    -30.5155565 -0.370657E-06  0.222E-03    2.31      11.6  T
   9    -30.5155566 -0.421057E-07  0.140E-03    2.31      18.5  T
speedup  1.01
cpu  time for SCC    0.02 s
wall time for SCC    0.02 s
speedup  0.99
cpu  time for grad    0.02 s
wall time for grad    0.02 s
 E :    -30.26521421  G :  0.029878    pred/act E change: -0.236D-02 -0.143D-02
Maxdispl :   0.1752   ||displ|| :   0.3418   Lambda : -0.406D-02
Largest |displ|/coords:  0.1752 (   1)  0.1234 (  10)  0.1218 (   7)
................................................................................
.............................. CYCLE   16 ......................................
................................................................................
   1    -30.5165632 -0.305166E+02  0.512E-01    2.34       0.0  T
   2    -30.5157027  0.860522E-03  0.422E-01    2.46       1.0  T
   3    -30.5154323  0.270372E-03  0.414E-01    2.33       1.0  T
   4    -30.5168167 -0.138443E-02  0.156E-01    2.38       1.0  T
   5    -30.5170302 -0.213434E-03  0.634E-02    2.39       1.0  T
   6    -30.5170446 -0.143978E-04  0.331E-02    2.40       1.0  T
   7    -30.5170523 -0.776136E-05  0.139E-02    2.38       1.9  T
   8    -30.5170551 -0.274418E-05  0.457E-03    2.39       5.7  T
   9    -30.5170553 -0.208834E-06  0.158E-03    2.39      16.4  T
speedup  1.00
cpu  time for SCC    0.02 s
wall time for SCC    0.02 s
speedup  1.03
cpu  time for grad    0.02 s
wall time for grad    0.02 s
 E :    -30.26707903  G :  0.025728    pred/act E change: -0.101D-02 -0.186D-02
Maxdispl :   0.1316   ||displ|| :   0.2700   Lambda : -0.227D-02
Largest |displ|/coords:  0.1316 (   1)  0.1003 (   4)  0.0855 (  10)
................................................................................
.............................. CYCLE   17 ......................................
................................................................................
   1    -30.5090927 -0.305091E+02  0.725E-01    2.20       0.0  T
   2    -30.5042072  0.488557E-02  0.797E-01    2.49       1.0  T
   3    -30.5102874 -0.608020E-02  0.478E-01    2.36       1.0  T
   4    -30.5117891 -0.150172E-02  0.186E-01    2.37       1.0  T
   5    -30.5118500 -0.608785E-04  0.931E-02    2.39       1.0  T
   6    -30.5119081 -0.581770E-04  0.458E-02    2.41       1.0  T
   7    -30.5119216 -0.134651E-04  0.155E-02    2.40       1.7  T
   8    -30.5119241 -0.253111E-05  0.779E-03    2.40       3.3  T
   9    -30.5119246 -0.405705E-06  0.415E-03    2.40       6.2  T
  10    -30.5119246 -0.686661E-07  0.173E-03    2.40      14.9  T
speedup  1.01
cpu  time for SCC    0.02 s
wall time for SCC    0.02 s
speedup  1.00
cpu  time for grad    0.02 s
wall time for grad    0.02 s
 E :    -30.26793755  G :  0.051807    pred/act E change: -0.227D-02 -0.859D-03
Maxdispl :   0.1286   ||displ|| :   0.1463   Lambda : -0.165D-02
Largest |displ|/coords:  0.1286 (   1)  0.0352 (  13)  0.0242 (   9)
................................................................................
.............................. CYCLE   18 ......................................
................................................................................
   1    -30.5179651 -0.305180E+02  0.244E-01    2.54       0.0  T
   2    -30.5173907  0.574342E-03  0.257E-01    2.43       1.0  T
   3    -30.5178902 -0.499447E-03  0.196E-01    2.52       1.0  T
   4    -30.5181705 -0.280294E-03  0.675E-02    2.52       1.0  T
   5    -30.5182055 -0.350947E-04  0.227E-02    2.50       1.1  T
   6    -30.5182072 -0.167652E-05  0.139E-02    2.50       1.9  T
   7    -30.5182086 -0.137319E-05  0.691E-03    2.50       3.7  T
   8    -30.5182089 -0.315873E-06  0.204E-03    2.50      12.7  T
speedup  1.00
cpu  time for SCC    0.02 s
wall time for SCC    0.02 s
speedup  1.00
cpu  time for grad    0.02 s
wall time for grad    0.02 s
 E :    -30.26880029  G :  0.020958    pred/act E change: -0.122D-02 -0.863D-03
Maxdispl :   0.1315   ||displ|| :   0.1875   Lambda : -0.108D-02
Largest |displ|/coords:  0.1315 (   4)  0.0564 (   6)  0.0498 (   3)
................................................................................
.............................. CYCLE   19 ......................................
................................................................................
   1    -30.5198762 -0.305199E+02  0.391E-01    2.58       0.0  T
   2    -30.5198672  0.891633E-05  0.225E-01    2.59       1.0  T
   3    -30.5191189  0.748347E-03  0.260E-01    2.56       1.0  T
   4    -30.5198126 -0.693735E-03  0.111E-01    2.59       1.0  T
   5    -30.5199043 -0.916540E-04  0.443E-02    2.58       1.0  T
   6    -30.5199109 -0.664240E-05  0.198E-02    2.58       1.3  T
   7    -30.5199151 -0.419756E-05  0.490E-03    2.58       5.3  T
   8    -30.5199154 -0.263399E-06  0.261E-03    2.58       9.9  T
speedup  1.01
cpu  time for SCC    0.02 s
wall time for SCC    0.02 s
speedup  0.96
cpu  time for grad    0.02 s
wall time for grad    0.02 s
 E :    -30.26947678  G :  0.009326    pred/act E change: -0.840D-03 -0.676D-03
Maxdispl :   0.1543   ||displ|| :   0.3343   Lambda : -0.108D-02
Largest |displ|/coords:  0.1543 (   4)  0.1430 (   1)  0.1336 (   3)
................................................................................
.............................. CYCLE   20 ......................................
................................................................................
   1    -30.5155035 -0.305155E+02  0.712E-01    2.53       0.0  T
   2    -30.5153760  0.127507E-03  0.407E-01    2.59       1.0  T
   3    -30.5112871  0.408886E-02  0.605E-01    2.43       1.0  T
   4    -30.5151844 -0.389731E-02  0.259E-01    2.55       1.0  T
   5    -30.5156570 -0.472598E-03  0.868E-02    2.56       1.0  T
   6    -30.5156746 -0.175505E-04  0.381E-02    2.57       1.0  T
   7    -30.5156956 -0.210150E-04  0.123E-02    2.55       2.1  T
   8    -30.5156970 -0.141839E-05  0.449E-03    2.56       5.7  T
   9    -30.5156971 -0.159925E-06  0.173E-03    2.56      14.9  T
speedup  1.00
cpu  time for SCC    0.02 s
wall time for SCC    0.02 s
speedup  1.01
cpu  time for grad    0.02 s
wall time for grad    0.02 s
 E :    -30.27015105  G :  0.017706    pred/act E change: -0.557D-03 -0.674D-03
Maxdispl :   0.1491   ||displ|| :   0.2898   Lambda : -0.695D-03
Largest |displ|/coords:  0.1491 (   4)  0.1451 (   1)  0.1340 (   3)
................................................................................
.............................. CYCLE   21 ......................................
................................................................................
   1    -30.5157807 -0.305158E+02  0.509E-01    2.58       0.0  T
   2    -30.5157827 -0.201926E-05  0.306E-01    2.59       1.0  T
   3    -30.5149742  0.808539E-03  0.316E-01    2.58       1.0  T
   4    -30.5157284 -0.754205E-03  0.101E-01    2.57       1.0  T
   5    -30.5157719 -0.435509E-04  0.892E-02    2.60       1.0  T
   6    -30.5158399 -0.679518E-04  0.201E-02    2.59       1.3  T
   7    -30.5158422 -0.230357E-05  0.848E-03    2.58       3.0  T
   8    -30.5158431 -0.864978E-06  0.292E-03    2.58       8.8  T
   9    -30.5158431 -0.385736E-07  0.797E-04    2.58      32.4  T
speedup  0.99
cpu  time for SCC    0.02 s
wall time for SCC    0.02 s
speedup  0.98
cpu  time for grad    0.02 s
wall time for grad    0.02 s
 E :    -30.27072619  G :  0.017921    pred/act E change: -0.602D-03 -0.575D-03
Maxdispl :   0.3075   ||displ|| :   0.5381   Lambda : -0.159D-02
Largest |displ|/coords:  0.3075 (   3)  0.2184 (   1)  0.2146 (   4)
................................................................................
.............................. CYCLE   22 ......................................
................................................................................
   1    -30.5150941 -0.305151E+02  0.741E-01    2.59       0.0  T
   2    -30.5145909  0.503169E-03  0.527E-01    2.58       1.0  T
   3    -30.5120122  0.257867E-02  0.630E-01    2.60       1.0  T
   4    -30.5152436 -0.323135E-02  0.129E-01    2.59       1.0  T
   5    -30.5153300 -0.864294E-04  0.578E-02    2.60       1.0  T
   6    -30.5153249  0.507505E-05  0.359E-02    2.60       1.0  T
   7    -30.5153364 -0.114858E-04  0.162E-02    2.59       1.6  T
   8    -30.5153385 -0.207051E-05  0.579E-03    2.60       4.5  T
   9    -30.5153388 -0.351890E-06  0.219E-03    2.60      11.8  T
  10    -30.5153389 -0.102202E-07  0.761E-04    2.60      33.9  T
speedup  1.02
cpu  time for SCC    0.03 s
wall time for SCC    0.03 s
speedup  0.96
cpu  time for grad    0.02 s
wall time for grad    0.02 s
 E :    -30.27203202  G :  0.020243    pred/act E change: -0.377D-03 -0.131D-02
Maxdispl :   0.3063   ||displ|| :   0.5439   Lambda : -0.204D-02
Largest |displ|/coords:  0.3063 (   3)  0.2486 (   6)  0.2129 (   4)
................................................................................
.............................. CYCLE   23 ......................................
................................................................................
   1    -30.5250744 -0.305251E+02  0.693E-01    2.60       0.0  T
   2    -30.5243332  0.741130E-03  0.529E-01    2.56       1.0  T
   3    -30.5235506  0.782658E-03  0.504E-01    2.57       1.0  T
   4    -30.5253160 -0.176541E-02  0.127E-01    2.64       1.0  T
   5    -30.5254626 -0.146653E-03  0.353E-02    2.62       1.0  T
   6    -30.5254592  0.339320E-05  0.313E-02    2.62       1.0  T
   7    -30.5254647 -0.541709E-05  0.209E-02    2.62       1.2  T
   8    -30.5254671 -0.242724E-05  0.799E-03    2.62       3.2  T
   9    -30.5254674 -0.321382E-06  0.164E-03    2.62      15.7  T
  10    -30.5254674 -0.797474E-08  0.104E-03    2.62      24.7  T
speedup  0.99
cpu  time for SCC    0.02 s
wall time for SCC    0.03 s
speedup  1.03
cpu  time for grad    0.02 s
wall time for grad    0.02 s
 E :    -30.27308109  G :  0.036043    pred/act E change: -0.103D-02 -0.105D-02
Maxdispl :   0.2362   ||displ|| :   0.4565   Lambda : -0.200D-02
Largest |displ|/coords:  0.2362 (   3)  0.1883 (   6)  0.1585 (   7)
................................................................................
.............................. CYCLE   24 ......................................
................................................................................
   1    -30.5059978 -0.305060E+02  0.879E-01    2.31       0.0  T
   2    -30.5056323  0.365495E-03  0.685E-01    2.46       1.0  T
   3    -30.5068795 -0.124718E-02  0.368E-01    2.39       1.0  T
   4    -30.5068573  0.221462E-04  0.261E-01    2.45       1.0  T
   5    -30.5074234 -0.566020E-03  0.758E-02    2.46       1.0  T
   6    -30.5074375 -0.141698E-04  0.545E-02    2.46       1.0  T
   7    -30.5074497 -0.121404E-04  0.215E-02    2.44       1.2  T
   8    -30.5074554 -0.574486E-05  0.704E-03    2.45       3.7  T
   9    -30.5074554 -0.236320E-07  0.447E-03    2.45       5.8  T
  10    -30.5074556 -0.132095E-06  0.176E-03    2.45      14.7  T
speedup  1.00
cpu  time for SCC    0.02 s
wall time for SCC    0.02 s
speedup  0.96
cpu  time for grad    0.02 s
wall time for grad    0.02 s
 E :    -30.27297383  G :  0.046227    pred/act E change: -0.132D-02  0.107D-03
Maxdispl :   0.2139   ||displ|| :   0.3600   Lambda : -0.410D-02
Largest |displ|/coords:  0.2139 (   1)  0.1298 (   7)  0.1126 (   4)
................................................................................
.............................. CYCLE   25 ......................................
................................................................................
   1    -30.5227140 -0.305227E+02  0.906E-01    2.52       0.0  T
   2    -30.5221699  0.544160E-03  0.673E-01    2.55       1.0  T
   3    -30.5204238  0.174606E-02  0.581E-01    2.45       1.0  T
   4    -30.5229296 -0.250577E-02  0.147E-01    2.54       1.0  T
   5    -30.5230744 -0.144841E-03  0.671E-02    2.57       1.0  T
   6    -30.5230886 -0.141479E-04  0.397E-02    2.56       1.0  T
   7    -30.5230927 -0.418379E-05  0.161E-02    2.56       1.6  T
   8    -30.5230935 -0.720022E-06  0.766E-03    2.56       3.4  T
   9    -30.5230939 -0.447092E-06  0.281E-03    2.56       9.2  T
  10    -30.5230939 -0.441504E-07  0.921E-04    2.56      28.0  T
speedup  1.02
cpu  time for SCC    0.03 s
wall time for SCC    0.03 s
speedup  0.99
cpu  time for grad    0.02 s
wall time for grad    0.02 s
 E :    -30.27395348  G :  0.026721    pred/act E change: -0.121D-02 -0.980D-03
Maxdispl :   0.1362   ||displ|| :   0.2326   Lambda : -0.253D-02
Largest |displ|/coords:  0.1362 (   4)  0.1154 (   3)  0.0554 (   8)

generating ANC from model Hessian ...
 Shifting diagonal of input Hessian by   9.598230560644783E-003
 Lowest  eigenvalues of input Hessian
   -0.000000   -0.000000   -0.000000   -0.000000   -0.000000    0.000000
    0.010000    0.010216    0.010940    0.012522    0.017696    0.022088
    0.026712    0.032986    0.037852    0.041414    0.061914    0.075972
 Highest eigenvalues
    1.334444    1.391764    1.685838    1.769406    2.229773    2.516330
 
cpu  time for ANC gen    0.00 s
wall time for ANC gen    0.00 s
................................................................................
.............................. CYCLE   26 ......................................
................................................................................
   1    -30.5294756 -0.305295E+02  0.497E-01    2.61       0.0  T
   2    -30.5294831 -0.753537E-05  0.341E-01    2.47       1.0  T
   3    -30.5298884 -0.405266E-03  0.212E-01    2.59       1.0  T
   4    -30.5299470 -0.585579E-04  0.171E-01    2.56       1.0  T
   5    -30.5301297 -0.182689E-03  0.641E-02    2.56       1.0  T
   6    -30.5301504 -0.207660E-04  0.187E-02    2.56       1.4  T
   7    -30.5301502  0.218628E-06  0.135E-02    2.57       1.9  T
   8    -30.5301520 -0.183146E-05  0.230E-03    2.56      11.2  T
   9    -30.5301521 -0.229977E-07  0.137E-03    2.56      18.8  T
  10    -30.5301521 -0.486995E-08  0.769E-04    2.56      33.6  T
  11    -30.5301521 -0.409253E-08  0.305E-04    2.56      84.7  T
speedup  1.00
cpu  time for SCC    0.03 s
wall time for SCC    0.03 s
speedup  0.98
cpu  time for grad    0.02 s
wall time for grad    0.02 s
 E :    -30.27488126  G :  0.022185    pred/act E change:  0.000D+00 -0.928D-03
Maxdispl :   0.1155   ||displ|| :   0.1736   Lambda : -0.922D-03
Largest |displ|/coords:  0.1155 (   2)  0.0869 (   1)  0.0645 (   8)
................................................................................
.............................. CYCLE   27 ......................................
................................................................................
   1    -30.5245948 -0.305246E+02  0.218E-01    2.47       0.0  T
   2    -30.5246083 -0.134970E-04  0.132E-01    2.50       1.0  T
   3    -30.5245954  0.129101E-04  0.918E-02    2.48       1.0  T
   4    -30.5246210 -0.256292E-04  0.384E-02    2.49       1.0  T
   5    -30.5246252 -0.418936E-05  0.312E-02    2.50       1.0  T
   6    -30.5246308 -0.563117E-05  0.947E-03    2.49       2.7  T
   7    -30.5246311 -0.269113E-06  0.585E-03    2.49       4.4  T
   8    -30.5246314 -0.312135E-06  0.190E-03    2.49      13.6  T
   9    -30.5246314 -0.118199E-07  0.949E-04    2.49      27.2  T
speedup  0.99
cpu  time for SCC    0.02 s
wall time for SCC    0.02 s
speedup  1.01
cpu  time for grad    0.02 s
wall time for grad    0.02 s
 E :    -30.27550667  G :  0.006554    pred/act E change:  0.000D+00 -0.625D-03
Maxdispl :   0.1945   ||displ|| :   0.2904   Lambda : -0.714D-03
Largest |displ|/coords:  0.1945 (   2)  0.1714 (   1)  0.0695 (   9)
................................................................................
.............................. CYCLE   28 ......................................
................................................................................
   1    -30.5187952 -0.305188E+02  0.327E-01    2.40       0.0  T
   2    -30.5187978 -0.257216E-05  0.202E-01    2.43       1.0  T
   3    -30.5187118  0.860345E-04  0.182E-01    2.41       1.0  T
   4    -30.5188280 -0.116183E-03  0.615E-02    2.40       1.0  T
   5    -30.5188524 -0.243905E-04  0.401E-02    2.43       1.0  T
   6    -30.5188613 -0.897789E-05  0.152E-02    2.42       1.7  T
   7    -30.5188625 -0.120241E-05  0.807E-03    2.42       3.2  T
   8    -30.5188631 -0.531598E-06  0.315E-03    2.42       8.2  T
   9    -30.5188631 -0.297346E-07  0.138E-03    2.42      18.7  T
speedup  0.98
cpu  time for SCC    0.02 s
wall time for SCC    0.02 s
speedup  1.01
cpu  time for grad    0.02 s
wall time for grad    0.02 s
 E :    -30.27586574  G :  0.012859    pred/act E change: -0.475D-03 -0.359D-03
Maxdispl :   0.1161   ||displ|| :   0.1744   Lambda : -0.305D-03
Largest |displ|/coords:  0.1161 (   1)  0.0965 (   2)  0.0522 (   3)
................................................................................
.............................. CYCLE   29 ......................................
................................................................................
   1    -30.5192441 -0.305192E+02  0.194E-01    2.42       0.0  T
   2    -30.5192394  0.467103E-05  0.115E-01    2.42       1.0  T
   3    -30.5191507  0.887456E-04  0.124E-01    2.43       1.0  T
   4    -30.5192565 -0.105771E-03  0.189E-02    2.42       1.4  T
   5    -30.5192548  0.164778E-05  0.232E-02    2.42       1.1  T
   6    -30.5192583 -0.353618E-05  0.593E-03    2.42       4.4  T
   7    -30.5192586 -0.298130E-06  0.243E-03    2.42      10.6  T
   8    -30.5192587 -0.179495E-07  0.133E-03    2.42      19.4  T
speedup  1.01
cpu  time for SCC    0.02 s
wall time for SCC    0.02 s
speedup  0.97
cpu  time for grad    0.02 s
wall time for grad    0.02 s
 E :    -30.27609195  G :  0.011813    pred/act E change: -0.387D-03 -0.226D-03
Maxdispl :   0.1936   ||displ|| :   0.2741   Lambda : -0.413D-03
Largest |displ|/coords:  0.1936 (   1)  0.1242 (   2)  0.1021 (   3)
................................................................................
.............................. CYCLE   30 ......................................
................................................................................
   1    -30.5226116 -0.305226E+02  0.289E-01    2.46       0.0  T
   2    -30.5226020  0.961633E-05  0.171E-01    2.44       1.0  T
   3    -30.5223338  0.268180E-03  0.156E-01    2.47       1.0  T
   4    -30.5226431 -0.309280E-03  0.256E-02    2.45       1.0  T
   5    -30.5226427  0.355129E-06  0.197E-02    2.45       1.3  T
   6    -30.5226444 -0.166819E-05  0.433E-03    2.45       6.0  T
   7    -30.5226443  0.411415E-07  0.584E-03    2.45       4.4  T
speedup  0.99
cpu  time for SCC    0.02 s
wall time for SCC    0.02 s
speedup  1.02
cpu  time for grad    0.02 s
wall time for grad    0.02 s
 E :    -30.27637981  G :  0.006362    pred/act E change: -0.157D-03 -0.288D-03
Maxdispl :   0.1736   ||displ|| :   0.2467   Lambda : -0.221D-03
Largest |displ|/coords:  0.1736 (   1)  0.1109 (   2)  0.0933 (   3)
................................................................................
.............................. CYCLE   31 ......................................
................................................................................
   1    -30.5239528 -0.305240E+02  0.281E-01    2.46       0.0  T
   2    -30.5239439  0.886416E-05  0.168E-01    2.44       1.0  T
   3    -30.5236918  0.252134E-03  0.148E-01    2.47       1.0  T
   4    -30.5239821 -0.290327E-03  0.288E-02    2.45       1.0  T
   5    -30.5239835 -0.145288E-05  0.176E-02    2.45       1.5  T
   6    -30.5239851 -0.153817E-05  0.547E-03    2.45       4.7  T
   7    -30.5239852 -0.926944E-07  0.297E-03    2.45       8.7  T
   8    -30.5239852 -0.657620E-07  0.184E-03    2.45      14.0  T
speedup  0.99
cpu  time for SCC    0.02 s
wall time for SCC    0.02 s
speedup  1.01
cpu  time for grad    0.02 s
wall time for grad    0.02 s
 E :    -30.27653111  G :  0.005087    pred/act E change: -0.222D-03 -0.151D-03
Maxdispl :   0.0779   ||displ|| :   0.1342   Lambda : -0.119D-03
Largest |displ|/coords:  0.0779 (   1)  0.0660 (   3)  0.0600 (   4)
................................................................................
.............................. CYCLE   32 ......................................
................................................................................
   1    -30.5259168 -0.305259E+02  0.178E-01    2.47       0.0  T
   2    -30.5259126  0.417851E-05  0.109E-01    2.45       1.0  T
   3    -30.5258622  0.504497E-04  0.906E-02    2.47       1.0  T
   4    -30.5259267 -0.645666E-04  0.389E-02    2.46       1.0  T
   5    -30.5259363 -0.956618E-05  0.124E-02    2.46       2.1  T
   6    -30.5259364 -0.868983E-07  0.101E-02    2.46       2.6  T
   7    -30.5259371 -0.709244E-06  0.221E-03    2.46      11.7  T
   8    -30.5259371 -0.306181E-07  0.122E-03    2.46      21.2  T
speedup  0.98
cpu  time for SCC    0.02 s
wall time for SCC    0.02 s
speedup  0.99
cpu  time for grad    0.02 s
wall time for grad    0.02 s
 E :    -30.27660659  G :  0.003161    pred/act E change: -0.117D-03 -0.755D-04
Maxdispl :   0.0758   ||displ|| :   0.1409   Lambda : -0.727D-04
Largest |displ|/coords:  0.0758 (   1)  0.0684 (   3)  0.0641 (   9)
................................................................................
.............................. CYCLE   33 ......................................
................................................................................
   1    -30.5250825 -0.305251E+02  0.192E-01    2.45       0.0  T
   2    -30.5250835 -0.103248E-05  0.111E-01    2.44       1.0  T
   3    -30.5250148  0.687236E-04  0.770E-02    2.46       1.0  T
   4    -30.5250881 -0.733043E-04  0.260E-02    2.45       1.0  T
   5    -30.5250911 -0.297855E-05  0.114E-02    2.45       2.3  T
   6    -30.5250917 -0.593855E-06  0.893E-03    2.45       2.9  T
   7    -30.5250921 -0.450073E-06  0.213E-03    2.45      12.1  T
   8    -30.5250921 -0.155370E-07  0.122E-03    2.45      21.1  T
   9    -30.5250921 -0.478511E-08  0.322E-04    2.45      80.3  T
  10    -30.5250921 -0.526335E-10  0.230E-04    2.45     112.1  T
speedup  1.01
cpu  time for SCC    0.03 s
wall time for SCC    0.03 s
speedup  0.99
cpu  time for grad    0.02 s
wall time for grad    0.02 s
 E :    -30.27665243  G :  0.002608    pred/act E change: -0.606D-04 -0.458D-04
Maxdispl :   0.0696   ||displ|| :   0.1262   Lambda : -0.729D-04
Largest |displ|/coords:  0.0696 (   3)  0.0683 (   4)  0.0543 (   9)
................................................................................
.............................. CYCLE   34 ......................................
................................................................................
   1    -30.5252737 -0.305253E+02  0.164E-01    2.45       0.0  T
   2    -30.5252732  0.587377E-06  0.954E-02    2.44       1.0  T
   3    -30.5252316  0.415847E-04  0.899E-02    2.45       1.0  T
   4    -30.5252788 -0.472122E-04  0.245E-02    2.45       1.1  T
   5    -30.5252829 -0.415288E-05  0.731E-03    2.45       3.5  T
   6    -30.5252829 -0.107241E-07  0.336E-03    2.45       7.7  T
   7    -30.5252830 -0.672271E-07  0.143E-03    2.45      18.0  T
   8    -30.5252830 -0.487541E-08  0.857E-04    2.45      30.1  T
   9    -30.5252830 -0.536658E-08  0.394E-04    2.45      65.6  T
speedup  0.98
cpu  time for SCC    0.02 s
wall time for SCC    0.02 s
speedup  1.01
cpu  time for grad    0.02 s
wall time for grad    0.02 s
 E :    -30.27670569  G :  0.003943    pred/act E change: -0.371D-04 -0.533D-04
Maxdispl :   0.0869   ||displ|| :   0.1620   Lambda : -0.837D-04
Largest |displ|/coords:  0.0869 (   3)  0.0790 (   2)  0.0743 (   4)
................................................................................
.............................. CYCLE   35 ......................................
................................................................................
   1    -30.5247087 -0.305247E+02  0.202E-01    2.45       0.0  T
   2    -30.5247094 -0.659765E-06  0.112E-01    2.44       1.0  T
   3    -30.5246467  0.627038E-04  0.103E-01    2.44       1.0  T
   4    -30.5247157 -0.690789E-04  0.191E-02    2.45       1.4  T
   5    -30.5247177 -0.196094E-05  0.770E-03    2.44       3.4  T
   6    -30.5247178 -0.890853E-07  0.464E-03    2.44       5.6  T
   7    -30.5247180 -0.195482E-06  0.184E-03    2.44      14.1  T
   8    -30.5247180 -0.180682E-07  0.797E-04    2.44      32.4  T
   9    -30.5247180 -0.168199E-08  0.376E-04    2.44      68.6  T
speedup  0.99
cpu  time for SCC    0.02 s
wall time for SCC    0.02 s
speedup  1.04
cpu  time for grad    0.02 s
wall time for grad    0.02 s
 E :    -30.27676292  G :  0.005642    pred/act E change: -0.370D-04 -0.572D-04
Maxdispl :   0.0856   ||displ|| :   0.1336   Lambda : -0.787D-04
Largest |displ|/coords:  0.0856 (   2)  0.0581 (   3)  0.0552 (   1)
................................................................................
.............................. CYCLE   36 ......................................
................................................................................
   1    -30.5249175 -0.305249E+02  0.137E-01    2.45       0.0  T
   2    -30.5249174  0.125111E-06  0.739E-02    2.45       1.0  T
   3    -30.5248762  0.412169E-04  0.605E-02    2.44       1.0  T
   4    -30.5249231 -0.469215E-04  0.102E-02    2.45       2.5  T
   5    -30.5249229  0.202975E-06  0.684E-03    2.45       3.8  T
   6    -30.5249234 -0.485709E-06  0.214E-03    2.45      12.1  T
   7    -30.5249234 -0.160487E-07  0.117E-03    2.45      22.1  T
speedup  1.00
cpu  time for SCC    0.02 s
wall time for SCC    0.02 s
speedup  1.01
cpu  time for grad    0.02 s
wall time for grad    0.02 s
 E :    -30.27681742  G :  0.005248    pred/act E change: -0.429D-04 -0.545D-04
Maxdispl :   0.0835   ||displ|| :   0.1283   Lambda : -0.791D-04
Largest |displ|/coords:  0.0835 (   3)  0.0607 (   2)  0.0499 (   9)
................................................................................
.............................. CYCLE   37 ......................................
................................................................................
   1    -30.5243897 -0.305244E+02  0.148E-01    2.45       0.0  T
   2    -30.5243901 -0.439069E-06  0.794E-02    2.45       1.0  T
   3    -30.5243514  0.387159E-04  0.693E-02    2.45       1.0  T
   4    -30.5243937 -0.423130E-04  0.120E-02    2.45       2.1  T
   5    -30.5243942 -0.483428E-06  0.744E-03    2.45       3.5  T
   6    -30.5243946 -0.370456E-06  0.313E-03    2.45       8.3  T
   7    -30.5243946 -0.671468E-07  0.126E-03    2.45      20.6  T
speedup  0.99
cpu  time for SCC    0.02 s
wall time for SCC    0.02 s
speedup  1.01
cpu  time for grad    0.02 s
wall time for grad    0.02 s
 E :    -30.27687067  G :  0.003768    pred/act E change: -0.400D-04 -0.532D-04
Maxdispl :   0.0850   ||displ|| :   0.1082   Lambda : -0.725D-04
Largest |displ|/coords:  0.0850 (   3)  0.0324 (   9)  0.0314 (   1)
................................................................................
.............................. CYCLE   38 ......................................
................................................................................
   1    -30.5251016 -0.305251E+02  0.106E-01    2.45       0.0  T
   2    -30.5250988  0.283588E-05  0.663E-02    2.45       1.0  T
   3    -30.5250747  0.240671E-04  0.695E-02    2.45       1.0  T
   4    -30.5251057 -0.309709E-04  0.113E-02    2.45       2.3  T
   5    -30.5251064 -0.698753E-06  0.528E-03    2.45       4.9  T
   6    -30.5251064 -0.495787E-07  0.266E-03    2.45       9.7  T
   7    -30.5251065 -0.575205E-07  0.120E-03    2.45      21.5  T
   8    -30.5251065 -0.795966E-08  0.580E-04    2.45      44.5  T
   9    -30.5251065 -0.279352E-08  0.157E-04    2.45     164.4  T
speedup  1.00
cpu  time for SCC    0.02 s
wall time for SCC    0.02 s
speedup  0.97
cpu  time for grad    0.02 s
wall time for grad    0.02 s
 E :    -30.27691595  G :  0.003311    pred/act E change: -0.402D-04 -0.453D-04
Maxdispl :   0.1447   ||displ|| :   0.1760   Lambda : -0.564D-04
Largest |displ|/coords:  0.1447 (   3)  0.0731 (   9)  0.0452 (   4)
................................................................................
.............................. CYCLE   39 ......................................
................................................................................
   1    -30.5244978 -0.305245E+02  0.167E-01    2.44       0.0  T
   2    -30.5244990 -0.120346E-05  0.867E-02    2.43       1.0  T
   3    -30.5244606  0.384552E-04  0.635E-02    2.45       1.0  T
   4    -30.5245031 -0.425517E-04  0.778E-03    2.44       3.3  T
   5    -30.5245032 -0.108715E-06  0.914E-03    2.44       2.8  T
   6    -30.5245035 -0.226211E-06  0.322E-03    2.44       8.0  T
   7    -30.5245035 -0.719104E-07  0.211E-03    2.44      12.2  T
   8    -30.5245036 -0.152927E-07  0.953E-04    2.44      27.1  T
   9    -30.5245036 -0.193322E-08  0.377E-04    2.44      68.4  T
speedup  1.00
cpu  time for SCC    0.02 s
wall time for SCC    0.02 s
speedup  0.99
cpu  time for grad    0.02 s
wall time for grad    0.02 s
 E :    -30.27694018  G :  0.004994    pred/act E change: -0.367D-04 -0.242D-04
Maxdispl :   0.0483   ||displ|| :   0.0772   Lambda : -0.842D-04
Largest |displ|/coords:  0.0483 (   3)  0.0265 (   2)  0.0246 (   1)
................................................................................
.............................. CYCLE   40 ......................................
................................................................................
   1    -30.5267786 -0.305268E+02  0.131E-01    2.44       0.0  T
   2    -30.5267777  0.856124E-06  0.738E-02    2.44       1.0  T
   3    -30.5267350  0.427918E-04  0.654E-02    2.45       1.0  T
   4    -30.5267830 -0.480188E-04  0.110E-02    2.44       2.3  T
   5    -30.5267830 -0.780272E-07  0.629E-03    2.44       4.1  T
   6    -30.5267832 -0.177673E-06  0.426E-03    2.44       6.1  T
   7    -30.5267834 -0.124148E-06  0.138E-03    2.44      18.7  T
speedup  1.03
cpu  time for SCC    0.02 s
wall time for SCC    0.02 s
speedup  0.94
cpu  time for grad    0.02 s
wall time for grad    0.02 s
 E :    -30.27696530  G :  0.004653    pred/act E change: -0.291D-04 -0.251D-04
Maxdispl :   0.0373   ||displ|| :   0.0469   Lambda : -0.397D-04
Largest |displ|/coords:  0.0373 (   3)  0.0196 (   4)  0.0148 (   5)
................................................................................
.............................. CYCLE   41 ......................................
................................................................................
   1    -30.5262393 -0.305262E+02  0.441E-02    2.43       0.0  T
   2    -30.5262384  0.940634E-06  0.318E-02    2.43       1.0  T
   3    -30.5262349  0.350035E-05  0.256E-02    2.43       1.0  T
   4    -30.5262401 -0.519852E-05  0.760E-03    2.43       3.4  T
   5    -30.5262403 -0.192797E-06  0.458E-03    2.43       5.6  T
   6    -30.5262403 -0.556863E-07  0.206E-03    2.43      12.5  T
speedup  1.03
cpu  time for SCC    0.02 s
wall time for SCC    0.02 s
speedup  1.00
cpu  time for grad    0.02 s
wall time for grad    0.02 s
 E :    -30.27698991  G :  0.003006    pred/act E change: -0.424D-04 -0.246D-04
Maxdispl :   0.0519   ||displ|| :   0.0715   Lambda : -0.235D-04
Largest |displ|/coords:  0.0519 (   3)  0.0343 (   1)  0.0222 (   9)
................................................................................
.............................. CYCLE   42 ......................................
................................................................................
   1    -30.5260275 -0.305260E+02  0.830E-02    2.43       0.0  T
   2    -30.5260281 -0.597604E-06  0.468E-02    2.43       1.0  T
   3    -30.5260225  0.566145E-05  0.321E-02    2.43       1.0  T
   4    -30.5260284 -0.592767E-05  0.846E-03    2.43       3.1  T
   5    -30.5260287 -0.258234E-06  0.447E-03    2.43       5.8  T
   6    -30.5260288 -0.100632E-06  0.167E-03    2.43      15.5  T
   7    -30.5260288 -0.183008E-07  0.949E-04    2.43      27.2  T
   8    -30.5260288 -0.935712E-08  0.333E-04    2.43      77.6  T
speedup  1.01
cpu  time for SCC    0.02 s
wall time for SCC    0.02 s
speedup  0.96
cpu  time for grad    0.02 s
wall time for grad    0.02 s
 E :    -30.27700411  G :  0.002286    pred/act E change: -0.199D-04 -0.142D-04
Maxdispl :   0.0518   ||displ|| :   0.0667   Lambda : -0.181D-04
Largest |displ|/coords:  0.0518 (   3)  0.0374 (   1)  0.0077 (  24)
................................................................................
.............................. CYCLE   43 ......................................
................................................................................
   1    -30.5258990 -0.305259E+02  0.103E-01    2.42       0.0  T
   2    -30.5258988  0.202623E-06  0.598E-02    2.43       1.0  T
   3    -30.5258796  0.191027E-04  0.527E-02    2.42       1.0  T
   4    -30.5258999 -0.202306E-04  0.759E-03    2.42       3.4  T
   5    -30.5258999 -0.557481E-07  0.351E-03    2.42       7.4  T
   6    -30.5259001 -0.115888E-06  0.116E-03    2.42      22.3  T
   7    -30.5259001 -0.117710E-07  0.643E-04    2.42      40.1  T
   8    -30.5259001 -0.128257E-08  0.315E-04    2.42      81.9  T
speedup  1.01
cpu  time for SCC    0.02 s
wall time for SCC    0.02 s
speedup  1.02
cpu  time for grad    0.02 s
wall time for grad    0.02 s
 E :    -30.27701716  G :  0.001575    pred/act E change: -0.118D-04 -0.130D-04
Maxdispl :   0.0585   ||displ|| :   0.0797   Lambda : -0.156D-04
Largest |displ|/coords:  0.0585 (   3)  0.0457 (   1)  0.0165 (   4)
................................................................................
.............................. CYCLE   44 ......................................
................................................................................
   1    -30.5258513 -0.305259E+02  0.127E-01    2.42       0.0  T
   2    -30.5258520 -0.727182E-06  0.720E-02    2.42       1.0  T
   3    -30.5258457  0.628586E-05  0.306E-02    2.42       1.0  T
   4    -30.5258522 -0.648896E-05  0.102E-02    2.42       2.5  T
   5    -30.5258525 -0.283141E-06  0.292E-03    2.42       8.9  T
   6    -30.5258526 -0.688317E-07  0.170E-03    2.42      15.2  T
   7    -30.5258526 -0.186247E-07  0.574E-04    2.42      45.0  T
   8    -30.5258526 -0.206054E-09  0.406E-04    2.42      63.6  T
speedup  0.98
cpu  time for SCC    0.02 s
wall time for SCC    0.02 s
speedup  1.02
cpu  time for grad    0.02 s
wall time for grad    0.02 s
 E :    -30.27702707  G :  0.000935    pred/act E change: -0.908D-05 -0.992D-05
Maxdispl :   0.0391   ||displ|| :   0.0520   Lambda : -0.467D-05
Largest |displ|/coords:  0.0391 (   3)  0.0291 (   1)  0.0068 (   4)
................................................................................
.............................. CYCLE   45 ......................................
................................................................................
   1    -30.5258508 -0.305259E+02  0.727E-02    2.42       0.0  T
   2    -30.5258511 -0.307753E-06  0.411E-02    2.42       1.0  T
   3    -30.5258506  0.483490E-06  0.901E-03    2.42       2.9  T
   4    -30.5258510 -0.378474E-06  0.600E-03    2.42       4.3  T
   5    -30.5258512 -0.199383E-06  0.302E-03    2.42       8.6  T
   6    -30.5258513 -0.424583E-07  0.869E-04    2.42      29.7  T
   7    -30.5258513 -0.192197E-08  0.542E-04    2.42      47.6  T
speedup  0.97
cpu  time for SCC    0.02 s
wall time for SCC    0.02 s
speedup  0.99
cpu  time for grad    0.02 s
wall time for grad    0.02 s
 E :    -30.27703005  G :  0.000728    pred/act E change: -0.783D-05 -0.298D-05
Maxdispl :   0.0205   ||displ|| :   0.0309   Lambda : -0.363D-05
Largest |displ|/coords:  0.0205 (   1)  0.0162 (   2)  0.0099 (   4)
ancopt converged in         45 cycles
total energy gain (kcal):     -1.3484
================
 final structure:
================
    15
        -30.27703005
N           1.68890763825204    1.86094674891641    0.90532575981839
C           1.80535769786020    0.76871414773878    0.41425580413185
C           1.08905257074754   -0.35121430047723   -0.24178867053553
O           1.89120518860184   -1.48457782012452   -0.46512613708152
H           2.81499409325514   -1.16749065779342   -0.60106326817623
H           0.69034693890831    0.03024749563339   -1.20099453870937
H           0.24208735797138   -0.66362989455506    0.38511854855102
PD          3.71945117252197    1.11917554751492    0.72546110684923
N           4.56124073924787   -0.21437544666464   -0.67591507716730
C           5.80767466632678   -0.09992140802496   -0.61003206069331
C           6.54998430301088    0.74601633050122    0.39807435956207
O           5.73712113225203    1.46783869898804    1.23757127226870
H           7.24767713927217    1.42086373494332   -0.15477914554563
H           7.20244717215974    0.04812390847727    0.97905740500461
H           6.44557518961155   -0.67402708507325   -1.31390335827680
$set
chrg     -1
uhf       0
$end
 
 Bond Distances (Angstroems)
 ---------------------------
N1-C2=1.2032         N1-PD8=2.1693        C2-N1=1.2032         C2-C3=1.4825         C2-PD8=1.9706        C3-C2=1.4825         
C3-O4=1.4064         C3-H6=1.1066         C3-H7=1.0991         O4-C3=1.4064         O4-H5=0.9861         H5-O4=0.9861         
H6-C3=1.1066         H7-C3=1.0991         PD8-N1=2.1693        PD8-C2=1.9706        PD8-N9=2.1097        PD8-O12=2.1106       
N9-PD8=2.1097        N9-C10=1.2534        C10-N9=1.2534        C10-C11=1.5109       C10-H15=1.1099       C11-C10=1.5109       
C11-O12=1.3735       C11-H13=1.1171       C11-H14=1.1182       O12-PD8=2.1106       O12-C11=1.3735       H13-C11=1.1171       
H14-C11=1.1182       H15-C10=1.1099       
 C  H  Rav=1.1102 sigma=0.0070  Rmin=1.0991  Rmax=1.1182     5
 C  C  Rav=1.4967 sigma=0.0142  Rmin=1.4825  Rmax=1.5109     2
 N  C  Rav=1.2283 sigma=0.0251  Rmin=1.2032  Rmax=1.2534     2
 O  H  Rav=0.9861 sigma=0.0000  Rmin=0.9861  Rmax=0.9861     1
 O  C  Rav=1.3899 sigma=0.0164  Rmin=1.3735  Rmax=1.4064     2
 PD C  Rav=1.9706 sigma=0.0000  Rmin=1.9706  Rmax=1.9706     1
 PD N  Rav=2.1395 sigma=0.0298  Rmin=2.1097  Rmax=2.1693     2
 PD O  Rav=2.1106 sigma=0.0000  Rmin=2.1106  Rmax=2.1106     1
 
 selected bond angles (degree)
 --------------------
PD8-N1-C2= 64.22               C3-C2-N1=145.05                PD8-C2-N1= 82.42               PD8-C2-C3=132.34               
O4-C3-C2=113.80                H6-C3-C2=107.29                H6-C3-O4=110.22                H7-C3-C2=109.55                
H7-C3-O4=107.52                H7-C3-H6=108.35                H5-O4-C3=107.28                C2-PD8-N1= 33.35               
N9-PD8-N1=130.14               N9-PD8-C2= 99.80               O12-PD8-N1=144.91              O12-PD8-C2=175.01              
O12-PD8-N9= 83.35              C10-N9-PD8=107.71              C11-C10-N9=125.08              H15-C10-N9=119.40              
H15-C10-C11=115.49             
 
 selected dihedral angles (degree)
 ---------------------------------
C3-C2-N1-PD8=185.31           O4-C3-C2-N1=186.45            O4-C3-C2-PD8= 13.59           H6-C3-C2-N1= 64.25            
H6-C3-C2-PD8=251.38           H7-C3-C2-N1=306.83            H7-C3-C2-PD8=133.97           H5-O4-C3-C2=329.71            
H5-O4-C3-H6= 90.29            H5-O4-C3-H7=208.20            N9-PD8-N1-C2= 28.81           O12-PD8-N1-C2=188.32          
N1-PD8-C2-C3=175.88           N9-PD8-C2-N1=201.95           N9-PD8-C2-C3= 17.83           O12-PD8-C2-N1= 73.08          
O12-PD8-C2-C3=248.97          C10-N9-PD8-N1=163.77          C10-N9-PD8-C2=179.36          C10-N9-PD8-O12=355.45         
C11-C10-N9-PD8=  5.57         H15-C10-N9-PD8=183.69         
 
             =======================================
             |                                     |
             |        S C C  calculation           |
             |                                     |
             =======================================
 #proc     :            1
 Ncao      :           48
 Nao       :           47
 Nel       :           55
 T(el)     :   300.0
 accuracy  :     1.0
 intcut    :    25.0
 scfconv   :  0.100E-05
   qconv   :  0.100E-03
 intneglect:  0.100E-07
 broydamp  :      0.500
 Nshell    :           25
 iter      E             dE          RMSdq      gap      omega  full diag
   1    -30.5258513 -0.305259E+02  0.333E-04    2.42       0.0  T
   2    -30.5258513  0.344198E-09  0.288E-04    2.42      89.7  T
   3    -30.5258513 -0.959947E-09  0.152E-04    2.42     170.4  T
speedup  0.95
cpu  time for SCC    0.01 s
wall time for SCC    0.01 s

          eigenvalues
 #    :          16         17         18         19         20         21         22         23
 occ. :        2.000      2.000      2.000      2.000      2.000      2.000      2.000      2.000
 eps  :        -8.592     -8.039     -7.788     -7.713     -7.603     -6.269     -5.754     -5.443
 #    :          24         25         26         27         28         29         30         31
 occ. :        2.000      2.000      2.000      2.000      1.000      0.000      0.000      0.000
 eps  :        -5.417     -5.372     -4.987     -4.928     -4.291     -1.870     -1.813     -1.488
 #    :          32         33         34         35         36         37         38         39
 occ. :        0.000      0.000      0.000      0.000      0.000      0.000      0.000      0.000
 eps  :         5.055      6.033      6.360      6.882      7.290      7.562      7.788      8.434
 
 
 Mulliken/CM5 charges        n(s)   n(p)   n(d)
     1 N  -0.26789 -0.45222   1.553  3.715  0.000
     2 C   0.11346  0.15737   1.108  2.778  0.000
     3 C   0.09495  0.02022   1.018  2.887  0.000
     4 O  -0.46166 -0.66670   1.712  4.750  0.000
     5 H   0.35112  0.53257   0.649  0.000  0.000
     6 H   0.03031  0.09252   0.970  0.000  0.000
     7 H   0.03982  0.10368   0.960  0.000  0.000
     8 PD -0.24166  0.03928   0.634  0.789  8.819
     9 N  -0.29898 -0.51553   1.468  3.831  0.000
    10 C   0.07956  0.11343   1.102  2.818  0.000
    11 C   0.12633  0.05750   1.021  2.852  0.000
    12 O  -0.48288 -0.58334   1.645  4.838  0.000
    13 H  -0.02610  0.03412   1.026  0.000  0.000
    14 H  -0.02540  0.03500   1.025  0.000  0.000
    15 H  -0.03098  0.03210   1.031  0.000  0.000
 
 Wiberg/Mayer (AO) data. WBOs > 0.1 written file <wbo>
 largest (>0.05) Wiberg bond orders for each atom
           total WBO             WBO to atom ...
     1  N   3.004    C    2 2.219    PD   8 0.646
     2  C   3.906    N    1 2.219    C    3 0.960    PD   8 0.650
     3  C   3.966    O    4 1.004    C    2 0.960    H    7 0.952    H    6 0.942    PD   8 0.072
     4  O   1.940    C    3 1.004    H    5 0.804
     5  H   0.877    O    4 0.804
     6  H   0.998    C    3 0.942
     7  H   0.997    C    3 0.952
     8  PD  3.159    N    9 0.821    O   12 0.705    C    2 0.650    N    1 0.646    C   10 0.087    C    3 0.072
     9  N   2.950    C   10 1.920    PD   8 0.821
    10  C   3.974    N    9 1.920    C   11 0.959    H   15 0.924    PD   8 0.087    O   12 0.053
    11  C   3.971    O   12 1.055    C   10 0.959    H   13 0.933    H   14 0.930
    12  O   1.928    C   11 1.055    PD   8 0.705    C   10 0.053
    13  H   0.995    C   11 0.933
    14  H   0.996    C   11 0.930
    15  H   0.979    C   10 0.924
 (R)spin-density population
 
 Mulliken population n(s)   n(p)   n(d)
     1 N   0.1211   0.001  0.120  0.000
     2 C   0.0403   0.003  0.037  0.000
     3 C   0.0074   0.001  0.006  0.000
     4 O   0.0020   0.001  0.001  0.000
     5 H   0.0001   0.000  0.000  0.000
     6 H   0.0006   0.001  0.000  0.000
     7 H   0.0006   0.001  0.000  0.000
     8 PD  0.4912   0.000  0.027  0.464
     9 N   0.2239   0.000  0.224  0.000
    10 C   0.0028   0.000  0.003  0.000
    11 C   0.0182   0.005  0.013  0.000
    12 O   0.0687  -0.001  0.069  0.000
    13 H   0.0034   0.003  0.000  0.000
    14 H   0.0009   0.001  0.000  0.000
    15 H   0.0188   0.019  0.000  0.000
 
molecular dipole:
                 x           y           z       tot (Debye)
 q only:       -8.151      -1.967      -1.484
   full:       -7.659      -1.724      -1.331      20.240
molecular quadrupole (traceless):
                xx          xy          yy          xz          yz          zz
 q only:      -66.161     -26.442      28.868     -19.059      -8.506      37.293
  q+dip:      -55.987     -22.596      22.287     -17.533      -9.466      33.700
   full:      -56.313     -23.409      21.956     -17.881     -11.197      34.356
 SCC converged in            3  cycles
 
SCC energy    :     -30.5258513
rep           :       0.2602805
ES            :       0.1889463
AES           :      -0.0010709
AXC           :       0.0084106
disp          :      -0.0114593
HB            :       0.0000000
XB            :       0.0000000
SRB           :       0.0000000
fix           :       0.0000000
total E       :     -30.2770301
atomizationE  :       4.8826972     3063.94
(atE without considerung molecular charge,
 total energy contains solvation terms)
H-L gap (eV)  :          2.4210
 !!!!!!!!!!!!!!!!!!!!!!!!!!!!!!!!!!!
 ! Note: the input coordinates are !
 ! NOT overwritten. The optimized  !
 ! ones are on file <xtbopt.coord> !
 ! (or on <xtbopt.xyz> if it was a !
 ! xyz file)                       !
 !!!!!!!!!!!!!!!!!!!!!!!!!!!!!!!!!!!
 
speedup  0.86
cpu  time for all    2.04 s
wall time for all    2.38 s
