 
        ______________________________________
       |                                      |
       |           ==================         |
       |                 x T B                |
       |           ==================         |
       |               S. Grimme              |
       |        Universitaet Bonn, MCTC       |
       |         2015-18, Version 5.9         |
       |      Thu Sep 27 14:45:01 CEST 2018   |
       |______________________________________|
 
        This code comes without any warranty
        for non-commercial, academia use only.
        Final GFN2 version.
        Cite GFN-xTB work as:
        S. Grimme, C. Bannwarth, P. Shushkov
        JCTC, 13 (2017) 1989-2009
        for GFN2:
        C. Bannwarth, S. Ehlert, S. Grimme
        to be published.
        sTDA-xTB:
        S. Grimme  &  C. Bannwarth, JCP 145 (2016) 054103
        in the mass-spec context additionally:
        V. Asgeirsson, C.Bauer, S. Grimme, Chem. Sci. 8 (2017) 4879
 
        with help from
        P. Shushkov, G. Brandenburg, S. Dohm, J. Pisarek,
        F. März, M. Checinski, S. Ehrlich, S. Spicher, 
        P. Pracht, E. Caldeweyher, S. Ehlert, and C. Bannwarth.
 
        usage        :
        xtb <coord_file> [options]
        where <coord_file> is a valid file of TM)
        (*coord, Bohr) or xmol (*xyz, Angstroem)
        format.

        options:
        -chrg <int>   : molecular charge
        -uhf  <int>   : # of unpaired electrons(=2*S)
        -nox          : skip second, extended part in sTDA-xTB
        -pop          : do population analysis
                      : (default for -nox)
        -mowr <real>  : cut MO write above (def.3 Eh)
        -molden       : write formatted molden file
        -parx <file>  : read parameters for sTDA-xTB
                        calc (def:~/.param_stda2.xtb)
        -parv <file>  : read parameters for vTB part in
                        sTDA-xTB (def: ~/.param_stda1.xtb)
        -xtemp <real> : el. temp for xTB (def. 0 K)
        -etemp <real> : el. temp for GFN (def. 300 K)
        -fod          : calculate the FOD and write
                        molden.input file with
                        appropriate occupations
                        for plotting. Def. T=12500 K
 
        -gfn1         : use GFN-xTB
        -gfn2         : use GFN2-xTB
        -gfn2d3       : GFN2-xTB with D3 instead of D4
        -grad         : GFNn-xTB gradient
        -acc <real>   : GFNn-xTB accuracy (def. 1.0)
        -opt [level]  : optimize at GFNn-xTB
                      : level=crude,vloose,loose,
                      :       tight,vtight
        -hess         : compute Hessian at GFNn-xTB
        -ohess        : optimize and compute Hessian
        -omd          : optimize and do MD
        -siman        : conformational search
        -screen       : opt. loop over ensemble
        -gmd          : annealed MD for GMD procedure
        -esp          : ESP plot
        -modef        : vib mode following
        -gbsa [string1] [string2]
                        use GBSA implicit solvent
                        for solvent [string1] and
                        solvation state [string2]=
                        reference, bar1M (default=1M)
        additional GFN/opt/MD/siman options read from
        $XTBHOME/.xtbrc or $set in coordinate file
 
       spin and charge state information can be on:
       <.CHRG> (charge) and <.UHF> (=nalpha-nbeta)
       -uhf and -chrg override the file info.
       useful machine settings:
       setenv MKL_NUM_THREADS <NCORE_ON_YOUR_MACHINE>
       setenv OMP_STACKSIZE 500m
       limit stacksize unlimited
 
       total energies in Eh, gaps/HL energies in eV
       please read REVISION and HOWTO files carefully
          62  days left until this code expires
 =============================
  # OMP threads =           1
 =============================
 
 xtbhome directory:/export/zimmerman/adewyer/bin/xtb/
 
 argument            1 :-opt
 
 
 !!!!!!!!!!!!!!!!!!!!!!!!!!!!!!!!!!!!!!!!!!
 ! reading options from coord file and    !
 ! overriding <.xxx> files and <.xtbrc>   !
 !!!!!!!!!!!!!!!!!!!!!!!!!!!!!!!!!!!!!!!!!!
 name of molecule           :
 comment line               :
 number of atoms            :    15
 number of electrons        :    55
 charge                     : -1
 spin                       : 0.5
 first test random number   :  0.5205
 
 
 -----------------------------------------
  G F N (Geometry, Frequency, Non-covalent)
        parametrization, gfnver=           2
     D3 dispersion (test)
 /export/zimmerman/adewyer/bin/xtb/.param_gfn2.xtb
 -----------------------------------------
      method parameters     
 k(s)        :  1.8500
 k(p)        :  2.2300
 k(d)        :  2.2300
 k(f)        :  2.0000
 kEN (H0ij)  : -2.0000
 D3 a1       :  0.5200
 D3 a2       :  5.0000
 D3 s8       :  2.7000
 D3atm       :  5.0000
 alphaj      :  2.0000
 
     -------------------------
     ! NO SOLVENT MODEL USED !
     -------------------------
 
            Z     q(EN)     CN     RAES       Cart. coordinates
     1  N   5.0   -0.33    2.03    1.90     2.24328     1.19303    -2.29612
     2  C   4.0   -0.03    3.18    3.03     0.15563     0.55356    -1.40607
     3  C   4.0   -0.00    4.10    3.81     0.01082    -0.66565     1.18034
     4  O   6.0   -0.32    1.92    1.82     2.37381    -0.77740     2.22948
     5  H   1.0   -0.03    1.00    1.43    -1.63145     0.82000    -2.45019
     6  H   1.0   -0.03    1.00    1.43    -0.84910    -2.57517     0.94796
     7  H   1.0   -0.03    1.00    1.43    -1.30870     0.43726     2.40044
     8  PD 10.0    0.54    4.18    5.00     5.14905     0.36373    -0.13258
     9  N   5.0   -0.34    2.05    1.90     7.77502     1.45982    -2.29666
    10  C   4.0   -0.03    3.20    3.04     9.98738     1.22876    -1.50482
    11  C   4.0   -0.00    4.10    3.80    10.44072     0.00698     1.05643
    12  O   6.0   -0.32    1.87    1.82     8.17213    -0.62864     2.13759
    13  H   1.0   -0.03    1.00    1.43    11.52922     1.35378     2.25845
    14  H   1.0   -0.03    1.00    1.43    11.67110    -1.68797     0.80257
    15  H   1.0   -0.03    1.00    1.43    11.63863     1.89320    -2.59055
 
  Z AO/shell   Hii/eV     exponent
  1     Sun Aug  5 11:40:37 CEST 2018   EN: 2.200 GM2: 0.406  GM3: 0.0800  RAES: 1.40
     1s    -10.707211    1.230000
  6     Sun Aug  5 11:40:37 CEST 2018   EN: 2.550 GM2: 0.538  GM3: 0.1500  RAES: 3.00
     2s    -13.970922    2.096432
     2p    -10.063292    1.800000
  7     Sun Aug  5 11:40:37 CEST 2018   EN: 3.040 GM2: 0.461  GM3:-0.0640  RAES: 1.90
     2s    -16.686243    2.339881
     2p    -12.523956    2.014332
  8     Sun Aug  5 11:40:37 CEST 2018   EN: 3.440 GM2: 0.452  GM3:-0.0517  RAES: 1.80
     2s    -20.229985    2.439742
     2p    -15.503117    2.137023
 46     Wed Apr 25 16:26:58 CEST 2018   EN: 2.200 GM2: 0.273  GM3: 0.0800  RAES: 5.00
     4d    -11.963518    2.353691
     5s     -9.714059    1.828354
     5p     -2.035281    1.333352
 no old-style atom pair restraing (fixing) potential
 
             =======================================
             |                                     |
             |        S C C  calculation           |
             |                                     |
             =======================================
 #proc     :            1
 Ncao      :           48
 Nao       :           47
 Nel       :           55
 T(el)     :   300.0
 accuracy  :     1.0
 intcut    :    25.0
 scfconv   :  0.100E-05
   qconv   :  0.100E-03
 intneglect:  0.100E-07
 broydamp  :      0.500
 Nshell    :           25
 iter      E             dE          RMSdq      gap      omega  full diag
   1    -30.2127685 -0.302128E+02  0.778E+00    2.49       0.0  T
   2    -30.2665909 -0.538225E-01  0.460E+00    1.33       1.0  T
   3    -30.4223214 -0.155731E+00  0.300E+00    2.95       1.0  T
   4    -30.3859076  0.364139E-01  0.295E+00    1.74       1.0  T
   5    -30.5047430 -0.118835E+00  0.973E-01    2.62       1.0  T
   6    -30.5039839  0.759192E-03  0.638E-01    2.57       1.0  T
   7    -30.5053402 -0.135638E-02  0.598E-01    2.67       1.0  T
   8    -30.5083032 -0.296300E-02  0.262E-01    2.69       1.0  T
   9    -30.5084934 -0.190128E-03  0.173E-01    2.69       1.0  T
  10    -30.5082197  0.273685E-03  0.122E-01    2.69       1.0  T
  11    -30.5085244 -0.304712E-03  0.491E-02    2.69       1.0  T
  12    -30.5085447 -0.202685E-04  0.303E-02    2.69       1.0  T
  13    -30.5085594 -0.147201E-04  0.632E-03    2.69       4.1  T
  14    -30.5085596 -0.219287E-06  0.519E-03    2.69       5.0  T
  15    -30.5085600 -0.418664E-06  0.199E-03    2.69      13.0  T
  16    -30.5085601 -0.583507E-07  0.734E-04    2.69      35.2  T
  17    -30.5085601 -0.698592E-08  0.111E-04    2.69     232.1  T
speedup  0.99
cpu  time for SCC    0.04 s
wall time for SCC    0.04 s

          eigenvalues
 #    :          16         17         18         19         20         21         22         23
 occ. :        2.000      2.000      2.000      2.000      2.000      2.000      2.000      2.000
 eps  :        -8.109     -7.971     -7.583     -6.559     -6.173     -6.077     -6.053     -5.719
 #    :          24         25         26         27         28         29         30         31
 occ. :        2.000      2.000      1.996      1.991      1.013      0.000      0.000      0.000
 eps  :        -5.492     -5.318     -4.928     -4.909     -4.676     -1.989     -1.813     -1.382
 #    :          32         33         34         35         36         37         38         39
 occ. :        0.000      0.000      0.000      0.000      0.000      0.000      0.000      0.000
 eps  :         6.622      6.876      7.169      7.517      7.598      7.935      8.903      9.122
 
 
 Mulliken/CM5 charges        n(s)   n(p)   n(d)
     1 N  -0.27934 -0.51541   1.436  3.844  0.000
     2 C   0.06151  0.09634   1.100  2.838  0.000
     3 C   0.11914  0.05081   1.027  2.854  0.000
     4 O  -0.48673 -0.59998   1.643  4.844  0.000
     5 H  -0.01567  0.04724   1.016  0.000  0.000
     6 H  -0.01485  0.04552   1.015  0.000  0.000
     7 H  -0.01798  0.04237   1.018  0.000  0.000
     8 PD  0.26121  0.67705   0.693  0.870  8.175
     9 N  -0.26805 -0.52808   1.423  3.845  0.000
    10 C   0.05582  0.08961   1.099  2.845  0.000
    11 C   0.11876  0.05079   1.028  2.853  0.000
    12 O  -0.48816 -0.59385   1.649  4.840  0.000
    13 H  -0.01524  0.04497   1.015  0.000  0.000
    14 H  -0.01661  0.04357   1.017  0.000  0.000
    15 H  -0.01382  0.04905   1.014  0.000  0.000
 
 Wiberg/Mayer (AO) data. WBOs > 0.1 written file <wbo>
 largest (>0.05) Wiberg bond orders for each atom
           total WBO             WBO to atom ...
     1  N   3.079    C    2 1.923    PD   8 0.929    O   12 0.082
     2  C   3.967    N    1 1.923    C    3 0.931    H    5 0.926    PD   8 0.111
     3  C   3.953    O    4 1.059    H    7 0.938    H    6 0.932    C    2 0.931
     4  O   1.980    C    3 1.059    PD   8 0.709    N    9 0.080
     5  H   0.982    C    2 0.926
     6  H   0.992    C    3 0.932
     7  H   0.997    C    3 0.938
     8  PD  3.765    N    9 0.975    N    1 0.929    O    4 0.709    O   12 0.703    C   10 0.137    C    2 0.111
     9  N   3.088    C   10 1.896    PD   8 0.975    O    4 0.080
    10  C   3.964    N    9 1.896    H   15 0.928    C   11 0.926    PD   8 0.137
    11  C   3.949    O   12 1.060    H   14 0.937    H   13 0.935    C   10 0.926
    12  O   1.976    C   11 1.060    PD   8 0.703    N    1 0.082
    13  H   0.993    C   11 0.935
    14  H   0.997    C   11 0.937
    15  H   0.982    C   10 0.928
 (R)spin-density population
 
 Mulliken population n(s)   n(p)   n(d)
     1 N   0.1482   0.013  0.135  0.000
     2 C   0.0110   0.000  0.011  0.000
     3 C   0.0321   0.002  0.030  0.000
     4 O   0.0309   0.007  0.024  0.000
     5 H   0.0115   0.012  0.000  0.000
     6 H   0.0038   0.004  0.000  0.000
     7 H   0.0002   0.000  0.000  0.000
     8 PD  0.4924   0.033  0.001  0.458
     9 N   0.1834   0.015  0.169  0.000
    10 C   0.0129   0.000  0.013  0.000
    11 C   0.0372   0.003  0.035  0.000
    12 O   0.0202   0.006  0.014  0.000
    13 H   0.0032   0.003  0.000  0.000
    14 H   0.0003   0.000  0.000  0.000
    15 H   0.0127   0.013  0.000  0.000
 
molecular dipole:
                 x           y           z       tot (Debye)
 q only:       -5.171       0.079      -0.841
   full:        5.187      -0.154      -0.399      13.185
molecular quadrupole (traceless):
                xx          xy          yy          xz          yz          zz
 q only:      -29.317       0.881      19.064      -7.091       4.499      10.252
  q+dip:      -22.788      -0.021      17.319      -3.990       6.400       5.469
   full:      -23.084      -0.027      18.045      -4.231       7.032       5.039
 SCC converged in           17  cycles
 
SCC energy    :     -30.5085601
rep           :       0.2405244
ES            :       0.1844430
AES           :       0.0097739
AXC           :       0.0072572
disp          :      -0.0110638
HB            :       0.0000000
XB            :       0.0000000
SRB           :       0.0000000
fix           :       0.0000000
total E       :     -30.2790995
atomizationE  :       4.8847667     3065.24
(atE without considerung molecular charge,
 total energy contains solvation terms)
H-L gap (eV)  :          2.6873
 
             =======================================
             |                                     |
             |    Approximate Normal Coordinate    |
             |   Rational Function Optimization    |
             |                                     |
             =======================================
Ref. for RF algo: F.Eckert, P.Pulay, H.-J.Werner
                  J.Comput.Chem. 18 (1997) 1473.
ANC idea implemented by S. Grimme in the 2000ers (unpublished)
restraining potential by S. Ehrlich.
dumping coords to <xtbopt.coord> and <xtbopt.log
 optlevel               0
 Maxcycle             200
 Maxmicro              25
 Econv         5.000000000000000E-006
 Gconv         1.000000000000000E-003
 Maxdispl       2.00000000000000     
 Hlow          1.000000000000000E-002
 S6             20.0000000000000     
 Nvar               39

generating ANC from model Hessian ...
 Shifting diagonal of input Hessian by   8.637551605220225E-003
 Lowest  eigenvalues of input Hessian
   -0.000000   -0.000000    0.000000    0.000000    0.000000    0.000000
    0.010000    0.010390    0.013235    0.013394    0.022742    0.024386
    0.029895    0.033591    0.041988    0.042363    0.071860    0.077873
 Highest eigenvalues
    1.415872    1.421943    1.738387    1.755558    2.249694    2.251198
 
cpu  time for ANC gen    0.00 s
wall time for ANC gen    0.00 s
................................................................................
.............................. CYCLE    1 ......................................
................................................................................
  q data taken from xtbrestart
  CAMM data taken from xtbrestart
   1    -30.5085601 -0.305086E+02  0.830E-05    2.69       0.0  T
   2    -30.5085601  0.234124E-08  0.338E-04    2.69      76.4  T
   3    -30.5085601 -0.236538E-08  0.655E-05    2.69     394.4  T
speedup  1.00
cpu  time for SCC    0.02 s
wall time for SCC    0.02 s
speedup  1.01
cpu  time for grad    0.02 s
wall time for grad    0.02 s
 E :    -30.27909953  G :  0.016699    pred/act E change:  0.000D+00 -0.769D-10
Maxdispl :   0.0252   ||displ|| :   0.0686   Lambda : -0.631D-03
Largest |displ|/coords:  0.0252 (  18)  0.0245 (   1)  0.0245 (   3)
................................................................................
.............................. CYCLE    2 ......................................
................................................................................
   1    -30.5094443 -0.305094E+02  0.105E-01    2.67       0.0  T
   2    -30.5088981  0.546174E-03  0.179E-01    2.67       1.0  T
   3    -30.5092152 -0.317137E-03  0.141E-01    2.67       1.0  T
   4    -30.5094862 -0.270912E-03  0.448E-02    2.67       1.0  T
   5    -30.5094939 -0.777115E-05  0.194E-02    2.68       1.3  T
   6    -30.5094996 -0.565191E-05  0.826E-03    2.67       3.1  T
   7    -30.5094995  0.804552E-07  0.596E-03    2.68       4.3  T
   8    -30.5095000 -0.500807E-06  0.121E-03    2.67      21.3  T
   9    -30.5095000  0.209507E-07  0.128E-03    2.67      20.1  T
speedup  1.00
cpu  time for SCC    0.02 s
wall time for SCC    0.02 s
speedup  0.91
cpu  time for grad    0.01 s
wall time for grad    0.01 s
 E :    -30.27957651  G :  0.010027    pred/act E change:  0.000D+00 -0.477D-03
Maxdispl :   0.0763   ||displ|| :   0.1317   Lambda : -0.680D-03
Largest |displ|/coords:  0.0763 (   4)  0.0431 (  11)  0.0406 (  18)
................................................................................
.............................. CYCLE    3 ......................................
................................................................................
   1    -30.5101738 -0.305102E+02  0.185E-01    2.65       0.0  T
   2    -30.5094606  0.713169E-03  0.278E-01    2.65       1.0  T
   3    -30.5100387 -0.578048E-03  0.141E-01    2.65       1.0  T
   4    -30.5093397  0.698931E-03  0.233E-01    2.65       1.0  T
   5    -30.5102890 -0.949291E-03  0.472E-02    2.65       1.0  T
   6    -30.5103205 -0.314901E-04  0.130E-02    2.65       2.0  T
   7    -30.5103166  0.395868E-05  0.158E-02    2.65       1.6  T
   8    -30.5103210 -0.446945E-05  0.390E-03    2.65       6.6  T
   9    -30.5103211 -0.105407E-06  0.131E-03    2.65      19.7  T
speedup  1.00
cpu  time for SCC    0.02 s
wall time for SCC    0.02 s
speedup  0.96
cpu  time for grad    0.01 s
wall time for grad    0.01 s
 E :    -30.27989936  G :  0.005393    pred/act E change: -0.317D-03 -0.323D-03
Maxdispl :   0.0672   ||displ|| :   0.0913   Lambda : -0.208D-03
Largest |displ|/coords:  0.0672 (   4)  0.0388 (   8)  0.0220 (   9)
................................................................................
.............................. CYCLE    4 ......................................
................................................................................
   1    -30.5099456 -0.305099E+02  0.165E-01    2.65       0.0  T
   2    -30.5056657  0.427988E-02  0.493E-01    2.61       1.0  T
   3    -30.5101543 -0.448860E-02  0.834E-02    2.65       1.0  T
   4    -30.5101441  0.101725E-04  0.627E-02    2.65       1.0  T
   5    -30.5101722 -0.280627E-04  0.136E-02    2.65       1.9  T
   6    -30.5101725 -0.319084E-06  0.929E-03    2.65       2.8  T
   7    -30.5101732 -0.660157E-06  0.424E-03    2.65       6.1  T
   8    -30.5101734 -0.216489E-06  0.152E-03    2.65      17.0  T
speedup  0.95
cpu  time for SCC    0.02 s
wall time for SCC    0.02 s
speedup  0.98
cpu  time for grad    0.01 s
wall time for grad    0.01 s
 E :    -30.27992261  G :  0.006000    pred/act E change: -0.346D-03 -0.232D-04
Maxdispl :   0.0303   ||displ|| :   0.0444   Lambda : -0.169D-03
Largest |displ|/coords:  0.0303 (   8)  0.0176 (   4)  0.0139 (   6)
................................................................................
.............................. CYCLE    5 ......................................
................................................................................
   1    -30.5101505 -0.305102E+02  0.746E-02    2.65       0.0  T
   2    -30.5100630  0.874935E-04  0.789E-02    2.65       1.0  T
   3    -30.5099083  0.154681E-03  0.117E-01    2.65       1.0  T
   4    -30.5101430 -0.234687E-03  0.377E-02    2.65       1.0  T
   5    -30.5101563 -0.133109E-04  0.707E-03    2.65       3.7  T
   6    -30.5101567 -0.373115E-06  0.253E-03    2.65      10.2  T
   7    -30.5101567 -0.783643E-08  0.168E-03    2.65      15.4  T
speedup  1.03
cpu  time for SCC    0.02 s
wall time for SCC    0.02 s
speedup  0.99
cpu  time for grad    0.01 s
wall time for grad    0.01 s
 E :    -30.28000182  G :  0.003018    pred/act E change: -0.105D-03 -0.792D-04
Maxdispl :   0.0173   ||displ|| :   0.0352   Lambda : -0.478D-04
Largest |displ|/coords:  0.0173 (   1)  0.0143 (  10)  0.0142 (   5)
................................................................................
.............................. CYCLE    6 ......................................
................................................................................
   1    -30.5103736 -0.305104E+02  0.479E-02    2.65       0.0  T
   2    -30.5102752  0.984642E-04  0.760E-02    2.65       1.0  T
   3    -30.5103325 -0.572823E-04  0.514E-02    2.65       1.0  T
   4    -30.5103750 -0.425329E-04  0.195E-02    2.65       1.3  T
   5    -30.5103793 -0.434768E-05  0.318E-03    2.65       8.1  T
   6    -30.5103793 -0.110243E-07  0.143E-03    2.65      18.0  T
   7    -30.5103793  0.356160E-08  0.769E-04    2.65      33.6  T
   8    -30.5103793 -0.450570E-08  0.232E-04    2.65     111.5  T
speedup  0.98
cpu  time for SCC    0.02 s
wall time for SCC    0.02 s
speedup  1.02
cpu  time for grad    0.01 s
wall time for grad    0.01 s
 E :    -30.28002394  G :  0.001533    pred/act E change: -0.844D-04 -0.221D-04
Maxdispl :   0.0222   ||displ|| :   0.0389   Lambda : -0.169D-04
Largest |displ|/coords:  0.0222 (   1)  0.0202 (   4)  0.0131 (   3)
................................................................................
.............................. CYCLE    7 ......................................
................................................................................
   1    -30.5103852 -0.305104E+02  0.592E-02    2.65       0.0  T
   2    -30.5100576  0.327604E-03  0.137E-01    2.65       1.0  T
   3    -30.5103848 -0.327163E-03  0.381E-02    2.65       1.0  T
   4    -30.5103965 -0.117083E-04  0.146E-02    2.65       1.8  T
   5    -30.5104003 -0.380977E-05  0.544E-03    2.65       4.7  T
   6    -30.5104008 -0.536142E-06  0.215E-03    2.65      12.0  T
   7    -30.5104009 -0.458294E-07  0.102E-03    2.65      25.3  T
   8    -30.5104009 -0.734533E-08  0.287E-04    2.65      90.0  T
   9    -30.5104009  0.515143E-11  0.212E-04    2.65     121.8  T
speedup  1.04
cpu  time for SCC    0.02 s
wall time for SCC    0.02 s
speedup  0.96
cpu  time for grad    0.01 s
wall time for grad    0.01 s
 E :    -30.28003792  G :  0.001143    pred/act E change: -0.239D-04 -0.140D-04
Maxdispl :   0.0700   ||displ|| :   0.1146   Lambda : -0.360D-04
Largest |displ|/coords:  0.0700 (   1)  0.0484 (   3)  0.0432 (   4)
................................................................................
.............................. CYCLE    8 ......................................
................................................................................
   1    -30.5102356 -0.305102E+02  0.170E-01    2.65       0.0  T
   2    -30.5088384  0.139719E-02  0.289E-01    2.64       1.0  T
   3    -30.5099153 -0.107697E-02  0.159E-01    2.65       1.0  T
   4    -30.5102676 -0.352256E-03  0.590E-02    2.65       1.0  T
   5    -30.5103082 -0.405854E-04  0.134E-02    2.65       1.9  T
   6    -30.5103081  0.973204E-07  0.621E-03    2.65       4.2  T
   7    -30.5103077  0.418246E-06  0.628E-03    2.65       4.1  T
   8    -30.5103084 -0.783078E-06  0.110E-03    2.65      23.4  T
   9    -30.5103085 -0.323913E-08  0.588E-04    2.65      43.9  T
  10    -30.5103085  0.388312E-10  0.361E-04    2.65      71.5  T
speedup  0.98
cpu  time for SCC    0.02 s
wall time for SCC    0.02 s
speedup  1.02
cpu  time for grad    0.01 s
wall time for grad    0.01 s
 E :    -30.28006053  G :  0.001576    pred/act E change: -0.845D-05 -0.226D-04
Maxdispl :   0.0367   ||displ|| :   0.0614   Lambda : -0.128D-04
Largest |displ|/coords:  0.0367 (   1)  0.0319 (   3)  0.0238 (   2)
................................................................................
.............................. CYCLE    9 ......................................
................................................................................
   1    -30.5102579 -0.305103E+02  0.869E-02    2.65       0.0  T
   2    -30.5102115  0.463596E-04  0.689E-02    2.65       1.0  T
   3    -30.5097883  0.423253E-03  0.159E-01    2.65       1.0  T
   4    -30.5102374 -0.449158E-03  0.453E-02    2.65       1.0  T
   5    -30.5102629 -0.254608E-04  0.760E-03    2.65       3.4  T
   6    -30.5102631 -0.228847E-06  0.282E-03    2.65       9.2  T
   7    -30.5102631  0.292824E-07  0.227E-03    2.65      11.4  T
   8    -30.5102632 -0.899684E-07  0.441E-04    2.65      58.5  T
   9    -30.5102632 -0.130837E-08  0.216E-04    2.65     119.3  T
speedup  0.97
cpu  time for SCC    0.02 s
wall time for SCC    0.02 s
speedup  1.02
cpu  time for grad    0.01 s
wall time for grad    0.01 s
 E :    -30.28007022  G :  0.001786    pred/act E change: -0.182D-04 -0.969D-05
Maxdispl :   0.0444   ||displ|| :   0.0756   Lambda : -0.168D-04
Largest |displ|/coords:  0.0444 (   3)  0.0404 (   1)  0.0321 (   2)
................................................................................
.............................. CYCLE   10 ......................................
................................................................................
   1    -30.5102245 -0.305102E+02  0.109E-01    2.65       0.0  T
   2    -30.5101826  0.419277E-04  0.791E-02    2.65       1.0  T
   3    -30.5095355  0.647058E-03  0.191E-01    2.64       1.0  T
   4    -30.5101691 -0.633595E-03  0.691E-02    2.65       1.0  T
   5    -30.5102323 -0.631437E-04  0.104E-02    2.65       2.5  T
   6    -30.5102326 -0.362210E-06  0.419E-03    2.65       6.2  T
   7    -30.5102327 -0.627912E-07  0.301E-03    2.65       8.6  T
   8    -30.5102328 -0.693120E-07  0.575E-04    2.65      44.9  T
   9    -30.5102328 -0.240268E-08  0.263E-04    2.65      98.0  T
speedup  0.97
cpu  time for SCC    0.02 s
wall time for SCC    0.02 s
speedup  1.03
cpu  time for grad    0.01 s
wall time for grad    0.01 s
 E :    -30.28008070  G :  0.001591    pred/act E change: -0.642D-05 -0.105D-04
Maxdispl :   0.0185   ||displ|| :   0.0281   Lambda : -0.607D-05
Largest |displ|/coords:  0.0185 (   3)  0.0159 (   2)  0.0079 (   1)
................................................................................
.............................. CYCLE   11 ......................................
................................................................................
   1    -30.5103109 -0.305103E+02  0.440E-02    2.65       0.0  T
   2    -30.5101626  0.148232E-03  0.932E-02    2.65       1.0  T
   3    -30.5103087 -0.146091E-03  0.287E-02    2.65       1.0  T
   4    -30.5103126 -0.383695E-05  0.225E-02    2.65       1.1  T
   5    -30.5103187 -0.616492E-05  0.359E-03    2.65       7.2  T
   6    -30.5103188 -0.512873E-07  0.169E-03    2.65      15.3  T
   7    -30.5103187  0.428950E-07  0.172E-03    2.65      15.1  T
   8    -30.5103188 -0.566573E-07  0.195E-04    2.65     132.3  T
   9    -30.5103188  0.407283E-09  0.167E-04    2.65     154.6  T
speedup  1.01
cpu  time for SCC    0.02 s
wall time for SCC    0.02 s
speedup  1.01
cpu  time for grad    0.02 s
wall time for grad    0.02 s
 E :    -30.28008449  G :  0.001122    pred/act E change: -0.844D-05 -0.378D-05
Maxdispl :   0.0168   ||displ|| :   0.0248   Lambda : -0.354D-05
Largest |displ|/coords:  0.0168 (   2)  0.0145 (   3)  0.0053 (   5)
................................................................................
.............................. CYCLE   12 ......................................
................................................................................
   1    -30.5103312 -0.305103E+02  0.417E-02    2.65       0.0  T
   2    -30.5102600  0.712703E-04  0.660E-02    2.65       1.0  T
   3    -30.5103082 -0.482134E-04  0.407E-02    2.65       1.0  T
   4    -30.5103324 -0.242678E-04  0.156E-02    2.64       1.7  T
   5    -30.5103351 -0.266226E-05  0.260E-03    2.64       9.9  T
   6    -30.5103351  0.149925E-07  0.199E-03    2.65      13.0  T
   7    -30.5103351 -0.965548E-08  0.125E-03    2.65      20.7  T
   8    -30.5103351 -0.230280E-07  0.298E-04    2.65      86.5  T
   9    -30.5103351 -0.123219E-08  0.125E-04    2.65     206.9  T
speedup  0.98
cpu  time for SCC    0.03 s
wall time for SCC    0.03 s
speedup  1.02
cpu  time for grad    0.02 s
wall time for grad    0.02 s
 E :    -30.28008670  G :  0.000723    pred/act E change: -0.304D-05 -0.221D-05
Maxdispl :   0.0089   ||displ|| :   0.0109   Lambda : -0.148D-05
Largest |displ|/coords:  0.0089 (   2)  0.0043 (   1)  0.0025 (   4)
ancopt converged in         12 cycles
total energy gain (kcal):     -0.6195
================
 final structure:
================
    15
        -30.28008670
N           1.22821126612785    0.64922821036164   -1.16036128034510
C           0.10479711344659    0.32868235309016   -0.71927830038066
C          -0.00192753871904   -0.35772033287791    0.63131719521790
O           1.23287275118008   -0.41205707616842    1.22040959407036
H          -0.82597693435762    0.52339592948525   -1.27945483731851
H          -0.43437023973815   -1.37172841003863    0.46067720232068
H          -0.73019216836633    0.18780683865818    1.27829464961474
PD          2.72366647488686    0.15853834741623   -0.08539872179716
N           4.11675744218255    0.71804426297006   -1.25862558563994
C           5.28150863829655    0.61713453423588   -0.81921970530466
C           5.51445490212800    0.01747263906395    0.55519568907153
O           4.32634997101587   -0.42635288123922    1.07350132730922
H           5.98475812983933    0.80317918711580    1.19208404658782
H           6.25555340840502   -0.81430886006954    0.48611749914646
H           6.15939278367246    0.95313825799655   -1.39731377255269
$set
chrg     -1
uhf       0
$end
 
 Bond Distances (Angstroems)
 ---------------------------
N1-C2=1.2487         N1-PD8=1.9060        C2-N1=1.2487         C2-C3=1.5188         C2-H5=1.1037         C3-C2=1.5188         
C3-O4=1.3692         C3-H6=1.1155         C3-H7=1.1165         O4-C3=1.3692         O4-PD8=2.0623        H5-C2=1.1037         
H6-C3=1.1155         H7-C3=1.1165         PD8-N1=1.9060        PD8-O4=2.0623        PD8-N9=1.9053        PD8-O12=2.0625       
N9-PD8=1.9053        N9-C10=1.2490        C10-N9=1.2490        C10-C11=1.5175       C10-H15=1.1035       C11-C10=1.5175       
C11-O12=1.3701       C11-H13=1.1154       C11-H14=1.1162       O12-PD8=2.0625       O12-C11=1.3701       H13-C11=1.1154       
H14-C11=1.1162       H15-C10=1.1035       
 C  H  Rav=1.1118 sigma=0.0058  Rmin=1.1035  Rmax=1.1165     6
 C  C  Rav=1.5181 sigma=0.0006  Rmin=1.5175  Rmax=1.5188     2
 N  C  Rav=1.2489 sigma=0.0001  Rmin=1.2487  Rmax=1.2490     2
 O  C  Rav=1.3697 sigma=0.0005  Rmin=1.3692  Rmax=1.3701     2
 PD N  Rav=1.9056 sigma=0.0003  Rmin=1.9053  Rmax=1.9060     2
 PD O  Rav=2.0624 sigma=0.0001  Rmin=2.0623  Rmax=2.0625     2
 
 selected bond angles (degree)
 --------------------
PD8-N1-C2=116.14               C3-C2-N1=119.56                H5-C2-N1=122.29                H5-C2-C3=118.15                
O4-C3-C2=109.70                H6-C3-C2=107.58                H6-C3-O4=112.29                H7-C3-C2=109.90                
H7-C3-O4=111.00                H7-C3-H6=106.26                PD8-O4-C3=111.62               O4-PD8-N1= 82.02               
N9-PD8-N1= 98.67               N9-PD8-O4=178.53               O12-PD8-N1=178.44              O12-PD8-O4= 97.32              
O12-PD8-N9= 82.02              C10-N9-PD8=116.20              C11-C10-N9=119.59              H15-C10-N9=122.21              
H15-C10-C11=118.21             
 
 selected dihedral angles (degree)
 ---------------------------------
C3-C2-N1-PD8=  2.52           H5-C2-N1-PD8=182.72           O4-C3-C2-N1=  5.22            O4-C3-C2-H5=185.03            
H6-C3-C2-N1=242.80            H6-C3-C2-H5= 62.61            H7-C3-C2-N1=127.52            H7-C3-C2-H5=307.33            
PD8-O4-C3-C2=350.49           PD8-O4-C3-H6=110.06           PD8-O4-C3-H7=228.84           O4-PD8-N1-C2=353.80           
N9-PD8-N1-C2=175.11           O12-PD8-N1-C2= 59.06          N1-PD8-O4-C3=  8.99           N9-PD8-O4-C3=127.13           
O12-PD8-O4-C3=190.42          C10-N9-PD8-N1=175.58          C10-N9-PD8-O4= 57.64          C10-N9-PD8-O12=354.16         
C11-C10-N9-PD8=  2.59         H15-C10-N9-PD8=182.73         
 
             =======================================
             |                                     |
             |        S C C  calculation           |
             |                                     |
             =======================================
 #proc     :            1
 Ncao      :           48
 Nao       :           47
 Nel       :           55
 T(el)     :   300.0
 accuracy  :     1.0
 intcut    :    25.0
 scfconv   :  0.100E-05
   qconv   :  0.100E-03
 intneglect:  0.100E-07
 broydamp  :      0.500
 Nshell    :           25
 iter      E             dE          RMSdq      gap      omega  full diag
   1    -30.5103351 -0.305103E+02  0.889E-05    2.65       0.0  T
   2    -30.5103351  0.975895E-10  0.619E-05    2.65     417.2  T
   3    -30.5103351  0.466084E-09  0.184E-04    2.65     140.6  T
speedup  0.99
cpu  time for SCC    0.02 s
wall time for SCC    0.02 s

          eigenvalues
 #    :          16         17         18         19         20         21         22         23
 occ. :        2.000      2.000      2.000      2.000      2.000      2.000      2.000      2.000
 eps  :        -8.119     -7.984     -7.623     -6.543     -6.116     -6.077     -6.042     -5.763
 #    :          24         25         26         27         28         29         30         31
 occ. :        2.000      2.000      1.999      1.996      1.005      0.000      0.000      0.000
 eps  :        -5.495     -5.341     -4.969     -4.922     -4.640     -1.995     -1.800     -1.285
 #    :          32         33         34         35         36         37         38         39
 occ. :        0.000      0.000      0.000      0.000      0.000      0.000      0.000      0.000
 eps  :         6.644      6.846      7.022      7.568      7.698      7.963      8.885      9.104
 
 
 Mulliken/CM5 charges        n(s)   n(p)   n(d)
     1 N  -0.27076 -0.52599   1.425  3.846  0.000
     2 C   0.05717  0.09115   1.100  2.843  0.000
     3 C   0.11955  0.05154   1.027  2.853  0.000
     4 O  -0.48930 -0.59610   1.649  4.840  0.000
     5 H  -0.01425  0.04867   1.014  0.000  0.000
     6 H  -0.01352  0.04683   1.014  0.000  0.000
     7 H  -0.01933  0.04083   1.019  0.000  0.000
     8 PD  0.26140  0.68694   0.696  0.866  8.176
     9 N  -0.27072 -0.52623   1.425  3.846  0.000
    10 C   0.05725  0.09116   1.099  2.843  0.000
    11 C   0.11928  0.05119   1.027  2.854  0.000
    12 O  -0.49007 -0.59682   1.649  4.841  0.000
    13 H  -0.01358  0.04678   1.014  0.000  0.000
    14 H  -0.01886  0.04135   1.019  0.000  0.000
    15 H  -0.01425  0.04871   1.014  0.000  0.000
 
 Wiberg/Mayer (AO) data. WBOs > 0.1 written file <wbo>
 largest (>0.05) Wiberg bond orders for each atom
           total WBO             WBO to atom ...
     1  N   3.093    C    2 1.903    PD   8 0.966    O   12 0.080
     2  C   3.966    N    1 1.903    C    3 0.928    H    5 0.927    PD   8 0.130
     3  C   3.952    O    4 1.062    H    7 0.940    H    6 0.930    C    2 0.928
     4  O   1.969    C    3 1.062    PD   8 0.694    N    9 0.080
     5  H   0.983    C    2 0.927
     6  H   0.991    C    3 0.930
     7  H   0.998    C    3 0.940
     8  PD  3.784    N    9 0.967    N    1 0.966    O   12 0.695    O    4 0.694    C    2 0.130    C   10 0.130
     9  N   3.093    C   10 1.901    PD   8 0.967    O    4 0.080
    10  C   3.966    N    9 1.901    C   11 0.930    H   15 0.927    PD   8 0.130
    11  C   3.953    O   12 1.061    H   14 0.939    H   13 0.930    C   10 0.930
    12  O   1.969    C   11 1.061    PD   8 0.695    N    1 0.080
    13  H   0.991    C   11 0.930
    14  H   0.998    C   11 0.939
    15  H   0.983    C   10 0.927
 (R)spin-density population
 
 Mulliken population n(s)   n(p)   n(d)
     1 N   0.1627   0.013  0.149  0.000
     2 C   0.0122   0.000  0.012  0.000
     3 C   0.0336   0.002  0.031  0.000
     4 O   0.0355   0.006  0.029  0.000
     5 H   0.0118   0.012  0.000  0.000
     6 H   0.0056   0.006  0.000  0.000
     7 H   0.0001   0.000  0.000  0.000
     8 PD  0.4793   0.030  0.001  0.448
     9 N   0.1629   0.013  0.150  0.000
    10 C   0.0121   0.000  0.012  0.000
    11 C   0.0334   0.002  0.031  0.000
    12 O   0.0334   0.006  0.027  0.000
    13 H   0.0054   0.005  0.000  0.000
    14 H   0.0001   0.000  0.000  0.000
    15 H   0.0118   0.012  0.000  0.000
 
molecular dipole:
                 x           y           z       tot (Debye)
 q only:       -5.193       0.177      -0.860
   full:       -5.173      -0.037      -0.417      13.192
molecular quadrupole (traceless):
                xx          xy          yy          xz          yz          zz
 q only:      -29.624       2.128      19.102      -6.414       4.682      10.522
  q+dip:      -22.980       1.365      17.247      -3.120       6.607       5.732
   full:      -23.242       1.379      17.953      -3.141       7.301       5.289
 SCC converged in            3  cycles
 
SCC energy    :     -30.5103351
rep           :       0.2413286
ES            :       0.1846185
AES           :       0.0094716
AXC           :       0.0069397
disp          :      -0.0110802
HB            :       0.0000000
XB            :       0.0000000
SRB           :       0.0000000
fix           :       0.0000000
total E       :     -30.2800867
atomizationE  :       4.8857539     3065.86
(atE without considerung molecular charge,
 total energy contains solvation terms)
H-L gap (eV)  :          2.6452
 !!!!!!!!!!!!!!!!!!!!!!!!!!!!!!!!!!!
 ! Note: the input coordinates are !
 ! NOT overwritten. The optimized  !
 ! ones are on file <xtbopt.coord> !
 ! (or on <xtbopt.xyz> if it was a !
 ! xyz file)                       !
 !!!!!!!!!!!!!!!!!!!!!!!!!!!!!!!!!!!
 
speedup  0.77
cpu  time for all    0.54 s
wall time for all    0.70 s
